# vtk DataFile Version 4.1
vtk output
ASCII
DATASET POLYDATA
POINTS 1300 float
16125 47875 54078.1 15325.8 46314.9 52799.4 18182.2 44231.3 48153.8 
22703.2 41611.5 46786.4 12372.8 42252.8 43912.1 9424.35 38705.4 43724.8 
27564.3 37342.5 44277 7827.56 34981.7 44441 5727.94 32148.4 40929.7 
6747.12 36212.6 37454.9 4728.66 33437.5 33195.3 6366.39 32526.5 42249.6 
5039.06 27765.6 41579.4 28941.2 35956.7 41212 27210.9 37644 36804.7 
22024.7 40287.8 36084.5 28006.8 36867.8 38832 30562.5 35876.4 35000 
5437.23 29193.9 41780.5 5812.5 24445 46085.9 5200.76 33645.4 34020.6 
4207.87 29570.3 30875 15155.3 41238 32028.9 5891.8 32010.5 41167 
4585.21 31118.8 32070.3 4207.87 31632.8 28039.1 30198.4 32817.6 43170.9 
31851.6 29570.3 39151.8 27625.4 37521.3 37062.9 7889.54 37813.5 36141.9 
30814.2 31627.3 43410.4 30121.1 26992.2 44539.1 31247.2 30887.3 39868.9 
31668 30859.4 34226.6 22336.2 41149.9 29846.2 23085.9 41750.4 24945.3 
5722.47 24926.4 46026.3 5812.5 22093.8 49563.3 4372.15 29694.8 30919.8 
4222.31 25703.1 27523.4 14982.8 41234.1 29595.9 11742.2 40719.2 28039.1 
14062.5 41215.2 22882.8 4328.63 31179.6 28390.6 4207.87 30601.6 24687.5 
22801.1 41522.2 26807.7 19218.8 42203.1 24200.7 4870.25 33499.9 33442.9 
4403.09 26744.8 27899 5224.69 25445.3 23656.2 31670.3 29965.4 39366.9 
31078.1 25441.2 39898.4 30105.6 27374.4 44033.5 29273.4 23060 44023.4 
31440.8 30874.5 37273.5 31137.9 26476.6 35000 31467.6 30504.9 35139.7 
30934.8 28281.2 31390.6 27696.2 38662.5 33814.2 29577.7 35500 27523.4 
22475.7 41261.6 28934.7 26301.4 40656.2 27523.4 23929.4 41031.5 28398.4 
26179.7 40211.8 30359.4 23000.5 41681.9 25504 4276.56 26015.6 27636.1 
5954.81 21062.5 26750 20077.7 42027.4 24395.3 18445.3 42260.9 20562.5 
24063.8 40027.4 22617.7 23153 40140.6 19273.4 5329.15 25471.3 24260.4 
7555.31 23125 19789.1 18482.4 42081.4 21380.8 15561.9 41429.7 19015.6 
4444.76 30688.4 24869.4 4881.28 30085.9 20046.9 7477.56 38199.7 32426.3 
6976.78 38078.1 28554.7 5317.09 22944.7 27086.7 5554.69 19980.7 30359.4 
31031.8 26230.2 39502.2 29605.5 22351.6 38093.8 29523.1 24354.3 44026.4 
28041.1 21320.3 48406.2 5996.99 24767.4 22919 5767.13 26218.8 20304.7 
29073.7 35740.3 29149.8 29606.5 31117.2 27007.8 30280.6 24121.6 38338.5 
30046.9 23081.7 35515.6 5763.51 21627.1 26851 7359.38 20266.4 23914.1 
29348.3 23448.3 44024.4 27877.1 19000 42476.6 29751.7 22896.1 37910.2 
28576.3 20804.7 36031.2 28436.2 20690.4 43064.7 27468.8 18147.2 45570.3 
16896.6 41716.6 19491.2 16125 41477.1 15148.4 30741.8 28309.6 31844 
29789.1 26476.6 29796.3 23390.2 39704 19967.9 22570.3 37304.7 15873.4 
5219.12 30397.6 20423.5 6070.31 30297.3 16695.3 6955.44 37935.4 28927.4 
29873.6 26574.5 30283.6 28555.7 23640.6 29328.1 5665.03 20246.7 29764.5 
6801.47 16164.1 32421.9 7460.85 23604.6 20128.8 9885.94 23382.8 16179.7 
6970.39 38035.3 28666.5 8906.25 39681.7 26492.2 29929.5 23152 35939.2 
28757.8 21578.1 33097.3 6625.23 20892.3 25265.1 8906.25 17289.2 25718.8 
25298.7 37211.2 20645 27468.8 34984.4 22292.9 7383.71 20416.5 24098.2 
9368.25 19773.4 21851.6 28666.4 20998.9 36466.4 26953.1 18158.5 35515.6 
4400.62 30875.1 26207.4 4781.25 34289.3 23656.2 5814.98 30327.4 17813.8 
7617.19 26686.9 16179.7 13895 41075 23867.5 11484.4 40186 20820.3 
5993.69 30306.4 17030.9 6782.91 33179.7 14890.6 9253.47 19949.5 21920.8 
11226.6 19667.2 19531.2 25266 31375 17984.4 6047.31 30300.1 16796 
7359.38 29570.3 13994.5 27467.1 19010.6 35800.9 25921.9 16662.2 38351.6 
6370.41 18500.6 30420.9 8511.28 15648.4 29328.1 27826.9 19607.1 36000.5 
26314.8 18742.2 31906.2 6915.63 16397.8 32134.3 8448.38 13328.1 34226.6 
27554.7 18572.7 44657.2 25664.1 14828.6 45312.5 9254.3 23886.9 16649.4 
10401.6 24929.7 13343.8 28825.9 24714.6 29269.8 26437.5 22301 25976.6 
22832.1 37338.9 16733.1 22859.1 32921.9 14117.2 6908.31 32732.9 14998 
8132.81 34867.8 12828.1 6841.38 37882.2 26554.5 8067.84 39109.4 22625 
25187.8 32221.1 18094.9 23916.1 30859.4 15921.9 15916.2 41310.2 18971.4 
12468.2 39367.2 16695.3 7601.82 38643 24118.2 6277.59 36789.1 21335.9 
7215.93 29839.5 14262.7 8865 30085.9 10507.8 7743.31 14740.2 33264.1 
6843.75 14461.5 36289.1 27727.7 23863.9 27468.6 26953.1 24671.9 24637 
25911 16900 37896.3 24117.2 14827.6 39640.6 26859.6 18858.4 34174.8 
24697.8 16421.9 33195.3 26270 18602.4 32506.6 24632.8 17453.1 30523.3 
8482.3 13578.5 34142.4 10453.1 11586.3 36031.2 8090.94 34530.2 13269.6 
10195.3 36573.5 11796.9 25813.6 15478.7 44919 23085.9 12251.5 43765.6 
24966.6 17835.6 30718.2 23859.4 17968.8 28090.6 23975.8 30970.9 15972.2 
22312.5 29312.5 12997.3 6780.85 37493.6 22393.2 7875 38078.1 19438.4 
27126.2 24736.1 25083.7 26695.3 26689 22367.2 6424.65 36862.2 21381.1 
6070.31 35550.5 19015.6 7104.24 14341.9 35869.4 6969.56 13070.3 39125 
9861.91 12184 35464.6 9537.38 11523.4 38609.4 6274.29 35933.7 19322.4 
6843.75 35757.8 16644.8 23934 30892.8 15936.9 23085.9 26734.4 15871.3 
23876.8 17824.5 28540.2 21848.4 17195.3 26234.4 23062.3 12533.4 44042.4 
20663.5 10492.2 43765.6 26629.6 25889.6 22993.1 25148.4 25860.9 20046.9 
23152.8 28045.5 15540.4 21443.2 25703.1 13343.8 22525 29796.4 13343.6 
20622.3 29570.3 9734.38 6672.87 35810.6 17448.1 9374.44 37820.3 16179.7 
9562.64 11279.8 38289.9 9164.06 9709.47 41960.9 24732.9 17567.9 30581.8 
20765.6 14815.2 29585.9 27354.8 24404.7 25990 28500 28015.2 24945.3 
22939.5 26993 15745.7 21796.9 23805.6 16179.7 21497.5 29674.3 11394.7 
19752.9 26218.8 10250 22456.9 17384.1 26926.1 22570.3 18989.7 23914.1 
21875.4 17268.1 26317.7 19476.6 16920 23914.1 21293 15059.5 30185.9 
19248.7 13328.1 30875 28297.3 27844.8 25123.8 28757.8 30501.5 24687.5 
22678.4 19056.3 24274.4 23085.9 21062.5 21758.8 19871.6 17154.9 24129.9 
17671.9 17926.5 20820.3 19369.8 13687.3 30652.8 16171.4 12554.7 30617.2 
28582.8 29492 24853.3 27468.8 30859.4 21786.6 18154.4 13256.9 30639.3 
16898.4 11779.2 33195.3 22602.7 19009.7 24022.2 20765.6 19133 21593.8 
20408.4 14428.3 30400.7 17671.9 14160.3 27781.2 22139.7 24761.8 16049.5 
22570.3 22712.5 19015.6 17482.4 12292.4 32661.6 17929.7 11751.3 35773.4 
22237.5 22978.9 18287 21023.4 20663.4 19531.2 21710.4 24021.8 16227.6 
19734.4 21320.3 17070.7 19861.4 21663 17201.1 17929.7 19456.8 18500 
7389.18 34245.2 43783.6 7962.76 37558.3 39266.6 27868 36943.6 42676.4 
5777.13 32107.1 41000.8 27335.3 37607.2 36882.1 24632.8 38670.1 37578.1 
25443.5 38351.2 37369.3 24117.2 39670.4 35515.6 15023.8 41246.8 35862.5 
15834.1 41232.8 31582.1 18445.3 41230.7 32164.1 24547.5 39344 35734 
24632.8 39882.8 33500.6 28773.5 36570.4 37682.5 30410.9 34726.6 37578.1 
13449.7 41034.8 35146.6 11484.4 40558.3 35773.4 5317.81 28765.4 41720.1 
4265.62 28029.6 39382.8 30141.9 35043.9 37389.7 31647.4 33437.5 36031.2 
5071.86 27834.6 41549 12074 40701.2 35585.4 5235 33953.1 37578.1 
5078.15 32939.5 38255.7 4728.66 32921.9 36546.9 31121.2 33999.8 36218 
31652.5 33437.5 33968.8 30015.4 36191.6 35471.6 30104.6 36789.1 33195.3 
4257.17 29607.7 30888.4 4207.87 27250 31648.4 5747.53 23584.5 47134 
5727.94 20804.7 47117.2 17929.7 41745.2 26750 4541.59 28047 39725.2 
4207.87 26734.4 37320.3 31508.2 33408.8 34359.5 31646.3 32148.4 32421.9 
31604.9 32526.6 33003.2 31128.7 33437.5 30875 4221.18 27561.7 31298.9 
9600.28 40140.6 28812.5 4364.94 27920.2 28615 4207.87 27765.6 25460.9 
31207.4 27676.4 35112.5 31126.6 26992.2 33453.1 31256.6 29932.9 33478 
31335.9 30343.8 32030 25652 40380.5 29564.7 28035.9 39367.2 29585.9 
12209.2 40825.1 27979.6 25589.8 40768.9 27785.9 26179.7 40503.6 25718.8 
19364.6 42035.1 24239.3 16640.6 41744.2 23656.2 4722.47 33437.5 29843.8 
5328.12 22133.2 28267.9 4724.53 22351.6 30359.4 23659.8 40656.1 23714.5 
22570.3 41542.1 21078.1 5256.04 25453.1 23837.5 4723.5 27765.6 22367.2 
5689.78 25091.2 23536 6252.84 22867.2 23656.2 29025.3 23489.9 45943 
29015.6 23867.5 47117.2 4805.38 33743.4 30171.5 4781.25 34289.3 28296.9 
29237.2 35675.5 27970.1 28693.9 36015.6 25718.8 29165.8 23542.4 45138.9 
28500 21210 46085.9 6183.55 23352.8 23479.4 6843.75 22046.3 22625 
27320.7 39671.2 29579.6 28242.2 38623.7 27523.4 29018.5 23754.2 46764.9 
29273.4 25703.1 47250.2 23083.9 39919.1 19430.5 21659.7 40398.4 17468.8 
31018.8 26997.7 34022.3 30108.8 24929.7 32421.9 27979.9 19615.3 44172.5 
27884.3 19515.6 46085.9 5938.62 21179.1 26881.8 6645.75 19515.6 27265.6 
29257.5 33942.1 27675 29273.4 33280.8 25718.8 26002.7 40583.2 26338.9 
27478 38335.9 24945.3 28132.6 21407.9 47887.2 27524.4 19773.4 48664.1 
18456.4 42207 20808 20765.6 41749.4 19273.4 29559.3 26016.5 29979.5 
29531.2 24340.8 30875 7526.95 23268.9 19891 8906.25 21811.2 19273.4 
13933.1 41049.4 26032.6 12515.6 40718.1 25203.1 29165 33445.2 25994.3 
28529.9 33179.7 23914.1 6697.62 24440.7 21005.4 6826.22 24929.7 19273.4 
15807.3 41224.4 16516.1 14835.9 40709.9 15406.2 29562.4 32557 27564.6 
30562.5 31111 28554.7 8465.9 22477.6 19322.4 9997.31 22093.8 17726.6 
26463.4 35762.7 21378.2 26953.1 33704.6 20820.3 6559.85 19675.7 27328.7 
7349.06 17710.9 28039.1 27014.7 38798.4 25068.9 27014 37304.7 23140.6 
7966.99 23895.8 18853.1 7617.19 25140.1 17726.6 19599.1 42043.6 23490.9 
20765.6 42260.9 21593.8 29059.6 21930.3 34214 27871.3 19167.6 42563.2 
26757.2 16937.5 41960.9 29104.6 25209.3 29539.5 29025.9 25187.5 28296.9 
6630.08 29892.3 15678.7 7288.22 28539.1 15148.4 12773.6 40637.9 22022.3 
13289.1 40683.1 20046.9 29068.4 25199.3 28967.9 29378.6 26734.4 28039.1 
28803.2 21706 33196 28500 21812.2 31648.4 27298.4 34944.7 22165.4 
28009.1 33953.1 22882.8 7285.74 28615.7 15183.3 8540.16 26476.6 14375 
11935.6 40272 20952.3 11484.4 39670.4 18757.8 23060.3 41729.9 25112.9 
22312.5 42255.7 23656.2 7230.16 15768 32563.6 9139.31 13843.8 31132.8 
11619.7 40211.8 20859.9 10388.2 39882.8 21851.6 26312.8 17518.2 37010 
24890.6 16039.3 36804.7 7027.11 37838.5 22910.7 5620.69 36015.6 23140.6 
28473.6 21768.2 31813.6 27726.6 21702.9 29843.8 8060.73 16418.5 29358.4 
9421.88 15648.4 27436.8 7262.65 14696.1 34735.7 6272.44 15648.4 35773.4 
7151.79 14448.2 35529.2 7875 13162.1 36031.2 7762.49 27802.8 14876.2 
[...]
CELL_DATA 1299
SCALARS radius float
LOOKUP_TABLE default
1.16281 0.971557 0.96592 0.86242 0.806122 0.83651 0.409629 0.052737 0.76589 
0.065841 0.395689 0.0579215 0.502333 0.0424371 0.676916 0.495623 0.0591347 0.335986 
0.0827432 0.716375 0.0451235 0.468454 0.284671 0.713667 0.0644794 0.769129 0.0551372 
0.448308 0.426427 0.43711 0.080292 0.718854 0.0898121 0.675117 0.0610814 0.248137 
0.178154 0.647197 0.07113 0.41722 0.0891568 0.102373 0.450913 0.0560462 0.655164 
0.0718568 0.160753 0.636789 0.0678766 0.618984 0.0862881 0.430073 0.076379 0.512116 
0.109787 0.492569 0.0457549 0.411417 0.0854035 0.674148 0.0718602 0.293027 0.0766077 
0.604626 0.551046 0.0686476 0.391895 0.0575819 0.59471 0.0693362 0.443092 0.0764629 
0.378365 0.0729956 0.441418 0.0725226 0.399096 0.0583997 0.549253 0.0924272 0.614395 
0.0539869 0.427558 0.111703 0.391418 0.0990102 0.385542 0.127856 0.613827 0.0801534 
0.346615 0.0628962 0.387109 0.0790851 0.588375 0.0440097 0.381049 0.110419 0.35019 
0.117235 0.490117 0.0827519 0.369552 0.085606 0.438433 0.0642295 0.390696 0.481761 
0.0787653 0.493299 0.0694692 0.368546 0.111502 0.163312 0.135657 0.30218 0.0715623 
0.332368 0.14335 0.534087 0.0884786 0.259775 0.0957652 0.584995 0.0676846 0.44568 
0.136002 0.426283 0.159353 0.368117 0.063464 0.418727 0.103674 0.237277 0.178476 
0.101383 0.304323 0.103472 0.25433 0.0998444 0.490003 0.118414 0.578924 0.0614112 
0.46715 0.0877182 0.355997 0.0752382 0.26251 0.193468 0.472335 0.0913476 0.349334 
0.0953244 0.333685 0.0978058 0.378435 0.121357 0.509793 0.0496172 0.296924 0.154778 
0.368928 0.0586108 0.255897 0.183336 0.457849 0.11053 0.465965 0.0733783 0.227567 
0.118629 0.562077 0.112537 0.554785 0.0672439 0.396778 0.11261 0.320445 0.144679 
0.341764 0.120848 0.546313 0.091196 0.506354 0.109613 0.357778 0.0637617 0.374166 
0.0882454 0.321585 0.110766 0.302588 0.0986748 0.378935 0.123786 0.312508 0.135221 
0.45892 0.0692314 0.463724 0.0694231 0.29205 0.170806 0.365317 0.105272 0.458726 
0.125857 0.305364 0.157877 0.307799 0.172589 0.301615 0.218142 0.39502 0.0872755 
0.451434 0.0933967 0.42831 0.0939791 0.300581 0.183049 0.458648 0.0756079 0.318221 
0.118424 0.394369 0.103576 0.337525 0.114976 0.338064 0.172006 0.270921 0.202424 
0.334166 0.144279 0.326552 0.129085 0.304516 0.127419 0.322518 0.078026 0.386312 
0.144186 0.391015 0.0637259 0.268039 0.208908 0.305582 0.195181 0.314974 0.129439 
0.276078 0.21936 0.400119 0.766992 0.5056 0.168108 0.273521 0.0691138 0.25356 
0.0811859 0.489009 0.295496 0.0854965 0.241412 0.102893 0.316301 0.080066 0.210685 
0.0975358 0.261519 0.069922 0.254281 0.0783191 0.155871 0.142264 0.118362 0.225168 
0.0859258 0.251607 0.0772286 0.23394 0.0712684 0.158573 0.0862927 0.223757 0.177034 
0.07911 0.24158 0.118865 0.222661 0.129421 0.196594 0.17577 0.157346 0.0671048 
0.641132 0.0900806 0.233994 0.0843619 0.491572 0.101694 0.215441 0.109876 0.248491 
0.2475 0.0796483 0.141344 0.134861 0.0990823 0.498737 0.120331 0.598974 0.103992 
0.187366 0.128927 0.43163 0.0643979 0.253091 0.0871945 0.156984 0.142538 0.271031 
0.11423 0.263308 0.126904 0.266457 0.0715139 0.195422 0.135128 0.198094 0.0937137 
0.185686 0.132537 0.225644 0.145018 0.36536 0.124048 0.170158 0.0857861 0.315312 
0.109084 0.209506 0.120751 0.203588 0.149699 0.214765 0.124756 0.480946 0.115825 
0.249653 0.123857 0.379462 0.106397 0.22179 0.172166 0.373455 0.126562 0.248903 
0.111318 0.229752 0.15995 0.232431 0.14538 0.223418 0.129048 0.166349 0.158368 
0.185867 0.167036 0.325536 0.114914 0.385668 0.114588 0.291622 0.187164 0.151417 
0.4768 0.0989819 0.303366 0.0719201 0.313831 0.0933637 0.144494 0.126972 0.280121 
0.0775935 0.18764 0.128645 0.223486 0.162536 0.290768 0.142027 0.145453 0.0915616 
0.463129 0.149753 0.252488 0.126975 0.241361 0.131532 0.364498 0.13802 0.271216 
0.102138 0.240529 0.12882 0.322401 0.14167 0.313012 0.143628 0.220975 0.18659 
0.230554 0.155994 0.395344 0.13281 0.269395 0.0939063 0.153677 0.147885 0.258294 
0.117515 0.24667 0.130935 0.251157 0.180277 0.215328 0.209202 0.283552 0.204921 
0.252857 0.137822 0.20469 0.148145 0.306966 0.144293 0.19907 0.166762 0.462545 
0.135367 0.284163 0.200241 0.285299 0.171685 0.246417 0.11271 0.192377 0.138706 
0.323296 0.103237 0.414961 0.0907103 0.226823 0.159738 0.242986 0.209579 0.328373 
0.147109 0.303447 0.176653 0.307918 0.12646 0.393804 0.0935374 0.282041 0.113392 
0.278569 0.138056 0.284083 0.128901 0.216444 0.200592 0.295526 0.171295 0.309957 
0.152047 0.282107 0.211554 0.31216 0.175483 0.260936 0.113562 0.109292 0.415731 
0.0864418 0.09049 0.199823 0.133938 0.139187 0.0825453 0.225613 0.139793 0.159731 
0.151958 0.169724 0.118342 0.137859 0.12719 0.116508 0.163972 0.140125 0.0767036 
0.226564 0.135152 0.644008 0.0877644 0.138779 0.125925 0.15311 0.0621731 0.163536 
0.131436 0.257945 0.0949034 0.209682 0.15335 0.401725 0.112716 0.615117 0.0935322 
0.252453 0.103985 0.148169 0.120125 0.115912 0.449616 0.0817796 0.174559 0.11924 
0.389232 0.118435 0.14327 0.377735 0.107601 0.161359 0.0906568 0.180892 0.0963133 
0.386116 0.104937 0.538827 0.0746908 0.148292 0.138568 0.146668 0.094535 0.240562 
0.0980506 0.146849 0.100255 0.252726 0.137609 0.238321 0.0959967 0.142391 0.126871 
0.23165 0.172809 0.157239 0.114567 0.353214 0.112822 0.122484 0.118883 0.258242 
0.0851437 0.256651 0.143971 0.236155 0.0908753 0.267707 0.125233 0.242388 0.0840482 
0.199018 0.157492 0.219743 0.0745878 0.200296 0.18116 0.230745 0.182586 0.150737 
0.140907 0.356301 0.114734 0.187683 0.154185 0.582268 0.0976031 0.469868 0.121408 
0.142197 0.133637 0.231958 0.18941 0.165982 0.109503 0.307485 0.111732 0.124472 
0.333533 0.137351 0.141281 0.511728 0.114842 0.14177 0.127686 0.343029 0.147505 
0.295947 0.148253 0.128759 0.123923 0.216284 0.184901 0.232356 0.143067 0.183776 
0.174035 0.220971 0.13854 0.221146 0.166946 0.189652 0.116424 0.551037 0.111529 
0.224457 0.151629 0.282987 0.140603 0.279335 0.123401 0.321317 0.112071 0.364837 
0.0932493 0.194687 0.171414 0.270396 0.223501 0.284983 0.192526 0.266916 0.116321 
0.261864 0.134197 0.315801 0.159484 0.298842 0.183475 0.294498 0.193178 0.232777 
0.143055 0.317116 0.139162 0.219803 0.197398 0.154432 0.144518 0.262856 0.162822 
0.274063 0.165439 0.247017 0.219283 0.231489 0.160186 0.330816 0.128177 0.245116 
0.193565 0.199722 0.180295 0.24697 0.231661 0.321126 0.149428 0.263621 0.126765 
0.23991 0.185401 0.271634 0.0902815 0.132801 0.236329 0.230229 0.256808 0.118368 
0.169617 0.10007 0.247731 0.109228 0.430992 0.0799428 0.203517 0.132946 0.153158 
0.23602 0.114921 0.16636 0.148861 0.641852 0.0961699 0.150971 0.143909 0.182513 
0.136156 0.152629 0.147263 0.189058 0.135457 0.429138 0.0954576 0.1376 0.133232 
0.601807 0.0923574 0.21352 0.147021 0.26812 0.100634 0.398745 0.107357 0.140521 
0.131414 0.247901 0.127124 0.353732 0.109596 0.202645 0.11543 0.550651 0.10824 
0.144728 0.135441 0.164993 0.132922 0.184348 0.12104 0.140143 0.122959 0.201879 
0.0831464 0.154031 0.120407 0.159715 0.103785 0.156461 0.145576 0.261469 0.110814 
0.145353 0.127308 0.173001 0.166347 0.586601 0.0939312 0.174712 0.15024 0.193724 
0.184961 0.191698 0.154526 0.431585 0.116485 0.492215 0.116972 0.380943 0.102746 
0.140722 0.0925178 0.202249 0.173251 0.153588 0.135692 0.182334 0.137334 0.175727 
0.157526 0.247789 0.122881 0.198271 0.185808 0.515368 0.106884 0.222275 0.153074 
0.179188 0.163455 0.174538 0.139692 0.150102 0.134848 0.137689 0.131523 0.184944 
0.176646 0.20398 0.177815 0.330315 0.146361 0.139888 0.136371 0.165651 0.13382 
0.231063 0.172075 0.152571 0.148819 0.20933 0.135571 0.552464 0.109218 0.154676 
0.148498 0.250129 0.169083 0.175399 0.156296 0.232327 0.127853 0.201083 0.186253 
0.29759 0.150498 0.180183 0.164135 0.188341 0.133391 0.198507 0.177343 0.218628 
0.16466 0.257467 0.121375 0.162707 0.15248 0.244096 0.228471 0.249546 0.143046 
0.255372 0.205079 0.185534 0.170481 0.189341 0.160302 0.22188 0.189893 0.18018 
0.167303 0.229122 0.197567 0.340897 0.10519 0.189243 0.168158 0.263158 0.179872 
0.235032 0.221324 0.3066 0.144411 0.287077 0.181306 0.195522 0.193239 0.248379 
0.174204 0.210864 0.158368 0.865281 0.0846239 0.108485 0.142153 0.0988029 0.769756 
0.081327 0.135111 0.0958444 0.114762 0.769453 0.0832233 0.338784 0.0984922 0.116619 
0.135526 0.120467 0.137248 0.127039 0.155839 0.106671 0.19438 0.170329 0.24044 
0.103138 0.121263 0.423292 0.063652 0.0938343 0.124963 0.213692 0.121175 0.452085 
0.0894885 0.134632 0.0950535 0.128119 0.123774 0.10979 0.432811 0.100598 0.105023 
0.385485 0.106603 0.16556 0.152347 0.150689 0.0934617 0.0853115 0.170553 0.114275 
0.226268 0.122753 0.184323 0.155732 0.24552 0.100413 0.145236 0.0863003 0.196087 
0.157855 0.239789 0.0991817 0.444561 0.0953963 0.406413 0.107323 0.396134 0.0965281 
0.222126 0.120826 0.212847 0.12868 0.190498 0.169371 0.389047 0.0956667 0.334415 
0.0949952 0.374802 0.094323 0.136378 0.127791 0.392209 0.08859 0.182215 0.111866 
0.144287 0.133532 0.173167 0.155951 0.14055 0.135891 0.159956 0.119614 0.383515 
0.102626 0.16364 0.14532 0.155235 0.13791 0.133536 0.125243 0.17913 0.163703 
0.151919 0.126043 0.149568 0.128895 0.167366 0.156936 0.585797 0.093751 0.300288 
0.100281 0.183695 0.17596 0.19049 0.144318 0.160784 0.118406 0.21262 0.165204 
0.139272 0.124063 0.132311 0.127393 0.142268 0.118369 0.296513 0.108264 0.215396 
0.163319 0.339717 0.128099 0.169487 0.149752 0.196833 0.181859 0.147319 0.119177 
0.158515 0.127126 0.467999 0.110004 0.13371 0.127659 0.180839 0.155842 0.35242 
0.11888 0.278556 0.118495 0.194825 0.181713 0.2785 0.127038 0.135876 0.128456 
0.508453 0.11748 0.269083 0.131053 0.195848 0.165963 0.218959 0.196343 0.177973 
0.173494 0.298877 0.157405 0.16219 0.142262 0.180561 0.171859 0.466334 0.1192 
0.347852 0.129498 0.18461 0.17469 0.167506 0.148764 0.181567 0.178907 0.257818 
0.24967 0.223608 0.210989 0.252031 0.222571 0.316773 0.141979 0.263679 0.1996 
0.27374 0.183371 0.281966 0.136305 0.194488 0.184264 0.340079 0.126323 0.335124 
0.141197 0.181719 0.164861 0.27216 0.172078 0.207858 0.18148 0.297247 0.149439 
0.260606 0.233146 0.215705 0.199996 0.266247 0.202618 1.16378 0.0566136 0.157812 
0.0722391 0.155345 0.0843681 0.972444 0.0495132 0.867429 0.058663 0.135993 0.0718996 
0.149953 0.140462 0.967083 0.0538817 0.169128 0.0504983 0.966186 0.090686 0.133769 
0.126452 0.135972 0.0845147 0.166742 0.0671772 0.232761 0.0721203 0.865011 0.0400975 
0.133091 0.120595 0.126971 0.118686 0.165183 0.0983617 0.179649 0.0815396 0.80646 
0.0870448 0.178981 0.095889 0.679227 0.0698595 0.219416 0.0703961 0.679763 0.0905762 
0.173152 0.108512 0.119262 0.110668 0.161393 0.14816 0.162735 0.144735 0.677411 
0.0879613 0.19739 0.102471 0.837344 0.0706437 0.120575 0.11188 0.194359 0.109252 
0.767439 0.0923922 0.766445 0.0992613 0.677999 0.0932563 0.184359 0.170564 0.146086 
0.117111 0.397443 0.0938888 0.719016 0.0691184 0.130701 0.123912 0.469947 0.0995219 
0.145902 0.133327 0.159798 0.0718058 0.47137 0.0981639 0.155365 0.0825703 0.167233 
0.132665 0.171136 0.10707 0.136992 0.124397 0.233032 0.107219 0.163751 0.114765 
0.263609 0.0901716 0.229131 0.0843598 0.172342 0.103558 0.218241 0.136987 0.221022 
0.0823023 0.216847 0.131977 0.425432 0.10495 0.212821 0.112911 0.141803 0.126518 
0.163686 0.148505 0.382748 0.112711 0.194345 0.180707 0.14763 0.0911107 0.143575 
0.130124 0.132828 0.105826 0.135908 0.123627 0.371553 0.112128 0.165217 0.144506 
0.615846 0.0939361 0.403903 0.10196 0.404037 0.065644 0.133704 0.128206 0.209243 
0.133956 0.131535 0.117759 0.16579 0.0977476 0.187167 0.139668 0.150075 0.141232 
0.166165 0.142483 0.147253 0.131877 0.129694 0.110312 0.184246 0.152262 0.193074 
0.178205 0.244605 0.100915 0.170909 0.15827 0.496391 0.100029 0.19715 0.172042 
0.39413 0.09623 0.237952 0.136855 0.273448 0.11519 0.319847 0.121913 0.255947 
0.110427 0.495034 0.108323 0.183081 0.154239 0.192295 0.134301 0.247239 0.136728 
0.287119 0.127409 0.516898 0.106946 0.145631 0.135628 0.141821 0.109101 0.428738 
0.110403 0.220061 0.133588 
