# vtk DataFile Version 4.1
vtk output
ASCII
DATASET POLYDATA
POINTS 1300 float
16125 47875 54078.1 15403.1 46110.7 52273.4 12187.5 42102.8 43601.3 
11093.7 40822.7 41145.4 21483.2 41647.4 44494.9 8283.48 36087.4 44057.8 
30105.7 33953.1 42218.8 27308.9 37015.8 42840.4 29015.6 35884.7 38351.6 
14183.2 41096.8 36552 16125 41230.7 30875 13044.5 40959.3 38102.9 
4207.87 30085.9 31132.8 5881.18 27670.8 43960.2 4523.44 25031.8 41187.5 
29226.9 34325 42652.9 30820.3 28952.6 43765.6 28862 35986.5 38755.6 
16103.3 41378.9 31113.7 17414.1 41676.2 27523.4 11202 40475.9 35020.5 
7875 38783.5 32421.9 4671.11 31424 31571.6 4207.87 30085.9 27265.6 
28969.5 35915.2 38472.7 30562.5 36397.2 33453.1 17020.8 41587 28600.5 
13804.7 41226.5 24945.3 30648.9 33232.6 37638.5 31651.5 27765.6 38351.6 
8401.35 38694.4 32820.3 5952.75 36531.2 30875 4346.89 30487.4 31264.4 
4207.87 24671.9 30617.2 4444.13 29904.6 28411.8 4736.91 25445.3 24687.5 
30209.6 29767.7 43722.2 29531.2 24414.1 45601.2 29989.5 36358 34158.7 
29541.6 37046.9 28812.5 15026.8 41363.5 26334.3 16640.6 41745.2 21851.6 
4278.72 30031.5 27609.5 4265.62 29799.3 22625 29479.5 37013.2 32147.3 
27210.9 39709.6 30101.6 8032.89 38756.8 32541.4 7875 38976.3 28812.5 
14171.3 41267.6 25362 10453.1 40204.6 24687.5 5147.14 32798.7 32784.4 
4723.5 33695.3 29328.1 4569.95 25059 30588.3 4974.09 21578.1 30101.6 
15979.8 41607 22331.1 16125 41687.5 18441.2 4870.04 26144 25765.2 
6252.84 21835.9 25203.1 29518 37034.1 30079.7 30108.8 33179.7 28039.1 
5395.56 24506.9 25551.6 7359.38 22954.8 20562.5 23793.2 40665.6 23396.8 
31156.2 28544.8 38159 22078.4 41171.9 19273.4 29570 25270.8 44800.8 
28500 20208.6 43507.8 4406.49 30151.8 23027.2 4757.53 30859.4 19789.1 
29542.9 24671.1 45361.1 28042.1 21320.3 48148.4 6141.26 24126.7 23107 
5812.5 25671.2 20562.5 29534.5 37043 29192.7 28040.1 36015.6 24171.9 
29876.8 27733 44611 29431.2 26476.6 47375 4982.34 22084.8 30405.1 
5812.5 18484.4 31330.8 31138.3 29204.1 33665.2 30092.2 25960.9 30875 
6099.19 22337.7 25541.7 7298.53 18742.2 26750 22606.7 41098.8 20240.1 
28875.4 21062.5 35257.8 13914.7 41238.9 25070.3 12515.6 40671.7 21593.8 
28607.9 36406 26079.8 28757.8 32664.1 24635.9 7319.26 23198.2 20888.6 
9421.88 22433 17984.4 26310.7 33953.1 20046.9 4846.53 30589.6 20230.2 
6070.31 30297.3 16695.3 7737.12 38726.4 29386.2 6585.94 37614.1 25718.8 
29372 22217 36249.1 27843.1 19000 37835.9 15934.2 41529.7 18619.6 
15609.4 41216.2 14632.8 6135.59 25207.3 20983.8 7298.53 26218.8 17210.9 
5907.79 18900.5 31340.1 7101.56 15855.7 32421.9 28323.7 20558.2 43529.4 
26953.1 17118 42476.6 7176.02 19820.1 26081.4 9421.88 17453.1 24994.8 
30079.6 26382.1 31375.7 27984.4 22714.6 29070.3 4229.12 30069.6 27368.8 
4724.53 33953.1 24687.5 5703.19 30385 17755.8 6303.38 33437.5 15664.1 
22828.1 35500 15043.3 6965.85 23476.7 21554.1 9421.88 19773.4 21696.9 
28799 21234.1 35431.4 26804.6 18742.2 33453.1 8778.79 21082.2 21343.7 
10968.8 19863.2 19531.2 25837.1 34692.6 19994.6 25268.1 31632.8 17984.4 
7297.09 25641 18098.3 10195.3 24620.3 14117.2 16067.8 41640.2 18494.7 
19218.8 42247.5 18242.2 27296.4 18116.3 43133.8 25978.6 15648.4 44539.1 
6070.31 30132.5 16960.1 7617.19 28750.5 14117.2 12818.9 40577.2 21840 
12000 39685.8 18500 27914.7 19504.3 37443.5 25406.2 16398.2 38093.8 
6361.43 17743.5 31751.2 8648.44 15648.4 29276.6 6359.06 32793.8 15867.9 
7858.5 34726.6 13085.9 4710.09 32927 24679.3 5239.12 34726.6 21593.8 
27219.5 19411.7 33590.2 25921.9 18718.5 30617.2 6879.54 16422.1 32220.7 
6840.66 14617.2 35257.8 28612.9 23814.8 29761.9 26695.3 23593.2 25460.9 
6855.4 15303.1 34103.7 8906.25 12788.8 34484.4 25208.2 32631.5 18290.9 
23418 31117.2 15148.4 7050.31 29603.9 14978.7 8319.47 30601.6 11539.1 
16442.4 41703.8 21995.4 20250 42260.9 23914.1 25990.2 15656.9 44490.6 
24890.6 13563.3 45570.3 12606.6 40643.4 21667.6 8558.72 39109.4 21335.9 
26929.1 18943 33494.3 24764.8 16679.7 32937.5 8421.87 15797 30155.1 
10453.1 13785 29585.9 5284.81 34572 22282.5 6585.94 37093.3 20562.5 
12401.6 39925.9 19077 13289.1 39681.7 16179.7 27011.2 24020.6 25830.2 
26179.7 24929.7 23093.2 25867 16951.4 38250.1 23859.4 14359.4 40464.6 
7780.85 34465.2 13692.7 10195.3 36586.9 12054.7 6837.77 14839.9 35158.6 
6774.66 14101.6 38093.8 25220.5 14191.4 45246.4 22892.1 12296.9 43250 
25496.5 17616.8 32787.1 23343.8 16421.9 30153.1 6808.69 14500.2 36508.8 
9031.03 12039.1 37578.1 23962 31140.6 16176.1 22828.1 27498.5 14632.8 
23501.2 31055.1 15229.4 22341.4 30601.6 12570.3 6602.75 36573.8 20535.4 
8132.81 38119.4 18500 26609.4 24957.8 24060.2 26695.3 27922.4 21593.8 
23816.7 16879.3 30424 22570.3 17385.1 27007.8 6320.08 33244.4 15725.2 
6843.75 36015.6 16903.6 6829.62 14019.1 37918.4 7101.56 12743.4 39898.4 
23409.3 12620.1 44129.2 20765.6 9869.31 44539.1 26464.2 25894.8 22868.5 
25406.2 25933.1 20304.7 23168.3 28591.1 15095.8 23343.8 25960.9 16645.8 
22768.3 27804.4 14652.4 21161.6 25703.1 13085.9 22321.4 30422 12839.9 
20613 29312.5 9734.38 7244.7 12797.2 39580.4 8648.44 10667.5 41445.3 
6943.37 35043 16223.4 9164.06 37580 15664.1 22436.3 17263.7 27250.2 
21023.4 17385.1 24945.3 23485.6 16559.1 30234.4 20765.6 14617.2 29961.3 
27748 23925.9 27638.8 28500 27734.7 25203.1 25713.9 26212.3 20949.4 
24958.7 28023.4 18500 20879.1 29283 10464.6 19218.8 26962.3 8960.94 
21447.3 17348.6 25636.8 22312.5 19515.6 22967.4 21020.9 17345.4 25100.6 
19218.8 17255.1 23140.6 21247.4 14951.1 30235.1 18960.9 13257 31390.6 
28524.6 32840.3 24708.1 28053.5 30085.9 23656.2 22331.6 19284.7 23604.1 
24117.2 22045.3 22367.2 19488.8 17441.9 23272.8 17671.9 18415.3 20304.7 
19646.9 13765.2 31044 16125 12812.5 29514.8 19022 13330.9 31430.4 
16898.4 11933.9 32937.5 23581.5 21217.1 22738.3 22828.1 22258.8 19789.1 
26168.6 34175 20031.2 27009.8 31117.2 21078.1 18590.3 13479.4 30585.2 
17929.7 14276.9 28039.1 17535.5 12353 32485.4 18009.1 11781.2 35773.4 
19299.8 17311.2 23180.3 17712.1 15390.6 25203.1 23054.1 21946.3 20673.8 
20250 20377.7 19015.6 21091.2 20848.3 19513.1 19734.4 21561.6 16437.5 
16640.6 41215.2 36289.1 15848.6 41194.9 36290.1 16898.4 41228.6 34484.4 
7619.35 33765.2 44629 21155.3 40836.7 35563.3 7617.19 30085.9 47942.2 
5543.45 32101.7 40137.7 4723.5 31632.8 38609.4 16263.1 41502.1 27739.3 
19476.6 41687.5 28630 30023.3 31335.1 43072.3 31335.9 29570.3 41753.7 
31364.5 32755.5 36977.2 31652.5 33437.5 34484.4 6073.72 24051.4 47518.7 
6270.37 23640.6 48921.9 4423.3 27591.6 30594.3 4207.87 26476.6 28554.7 
17312.5 41654.6 27611.7 17671.9 41745.2 25460.9 31566.1 33232.9 35232.2 
31652.5 31890.6 33453.1 12123.7 40914.1 28296.9 31608.4 31957.5 33661.5 
31593.8 30595.4 32164.1 30390.6 36385.4 33664.8 31136.9 34468.8 32164.1 
7833.65 38901.4 28984.6 9421.88 40000.4 27007.8 6514.57 36898.7 31472.4 
5243.25 34984.4 31390.6 4602.23 27983.9 26680.2 4265.62 27735.7 24171.9 
31525.5 30743.1 32424 31078.1 29023.8 31132.8 24435.4 39292.5 21885 
24375 39367.2 20197.4 17441.3 41723.5 25688.4 17156.2 41745.2 24429.7 
16581.2 41732.8 21894.7 18445.3 42260.9 21078.1 5756.5 23084.4 25787.3 
5812.5 21008.9 27265.6 28882.3 22621.9 44857 28555.7 21320.3 45570.3 
6206.75 21986.5 25304.7 6522 22093.8 23398.4 27891.5 38900.6 30715.3 
28044.2 39109.4 28039.1 4766.4 33272.8 30044.8 4213.03 32406.2 27781.2 
31064.2 29311.8 31264.9 30116 27765.6 29585.9 28515.5 21375.9 45486.5 
28039 20031.2 46085.9 28509.3 21077.7 43668.3 28572.2 20289.1 41960.9 
7964.72 23073.6 19770 7875 23784 18500 29726.5 33431.2 28197.7 
29606.5 31117.2 27007.8 6508.39 21381 25746.8 7359.38 20183.9 24171.9 
28081.7 35924 24421.5 27539.9 35242.2 22882.8 29685.9 22931.2 36604.2 
29588 22609.4 34742.2 7237.89 20548.1 24416.6 8132.81 20476.7 22882.8 
28087.8 20130.7 45887.9 27468.8 18148.2 45828.1 8984.73 22625.2 18520.1 
9039.28 23640.6 16953.1 8594.61 39455.5 27713.5 8390.62 39483.7 25976.6 
30088.5 26087.3 31025.2 29531.2 25929 29070.3 7265.63 18925 26749.9 
7299.56 17968.8 28039.1 28052.6 35988.1 24246.8 27014 37304.7 23140.6 
29415.4 22620.2 34889.7 29090.9 22351.6 33453.1 8580.48 15693 29540.1 
8321.53 16679.7 28039.1 9122.91 24478.2 16326.5 10195.3 23382.8 15870.3 
28114.1 20311.4 34946.1 26953.1 18158.5 35515.6 7234.39 26189.9 17449.3 
6843.75 27457.3 16695.3 19402.4 42110.4 23179.5 21539.1 42260.9 22367.2 
29095.8 22315.8 33683.9 28500 21578.1 32331.1 7085.89 26671.5 17162.8 
7793.53 26992.2 15664.1 4818.07 33800.6 24756.1 5437.12 36015.6 25203.1 
5309.15 35321.8 24866.2 6070.31 36597.2 23914.1 22975.5 35701.5 15607.9 
23085.9 33953.1 14843.2 27939.4 23666.6 28286.5 26953.1 22351.6 26957.3 
7748.77 26833.4 15852.2 8838.19 26476.6 14117.2 6054.54 36516.2 24078.4 
7101.56 38129.7 23140.6 7532.63 29983 13671.6 7325.34 32148.4 13085.9 
10197.5 24492.5 14324.8 10940.9 24414.1 13085.9 22955.8 34244.7 14839.8 
22369.2 32664.1 13343.8 25460 16513.7 38052.7 24375 15523.7 37320.3 
8628.02 15661.8 29355.6 9655.97 15390.6 27523.4 8472.2 39457.1 26093.8 
8390.62 39429.1 23914.1 6818.9 37690.6 23213.3 7101.56 38104.9 21851.6 
7588 28947.4 14202.2 8825.81 28023.4 12570.3 8806.12 13094.8 34698.8 
10083.9 11781.2 35257.8 9347.62 15472 28073.1 9164.06 16679.7 26697.4 
8876.24 12880.6 34548.7 10453.1 12106.1 33453.1 12905.1 39606 16853.7 
12257.8 38670.1 15406.2 25916 18984.9 30742.7 24764.8 18742.2 28296.9 
27327.9 22851.3 27462.4 25982.1 15651 44524.5 25951.8 15132.8 47117.2 
23443 31098.6 15172.8 23193.2 32406.2 14632.8 6873.66 35723.8 16699.6 
6256.97 35757.8 18757.8 12644.4 39085.3 15812 13031.2 38761.8 13859.4 
25664.1 20546.9 26919.1 23328.1 31700.1 14924.3 23884.1 32921.9 15664.1 
22335.4 30547.7 12651.2 21843.3 31890.6 12054.7 7673.39 36054 16210.6 
7875 37371.7 17210.9 23161.2 16846.9 29312.7 21796.9 15906.2 28607.3 
28023.9 30241.7 23836.5 27544 28281.2 23398.4 22888.3 28040.4 14785.4 
21837.1 28023.4 12570.3 21970.9 27840.6 12988 20765.6 26684.9 11281.2 
23157.3 26144.9 16432 22828.1 24363.5 17210.9 21772.2 26501.6 13681.2 
21281.2 24414.1 14582.3 25394.1 26021 20392 24375 25703.1 18948.6 
8696.19 37007.4 15674.9 9548.72 37304.7 14375 22093.9 16235.4 28610.3 
[...]
CELL_DATA 1299
SCALARS radius float
LOOKUP_TABLE default
1.15823 0.880966 0.852227 0.941511 0.384314 0.0848509 0.854323 0.0502828 0.528152 
0.0641203 0.571148 0.0714539 0.264313 0.113712 0.456149 0.075316 0.805784 0.519241 
0.044342 0.333035 0.0647929 0.750118 0.0517687 0.478135 0.0693231 0.518915 0.0624509 
0.744673 0.0863838 0.317453 0.116834 0.517038 0.0793675 0.655675 0.101024 0.434292 
0.0595346 0.466011 0.075433 0.496166 0.0573271 0.515418 0.0652484 0.461438 0.0703772 
0.30063 0.0743831 0.409545 0.0721481 0.754722 0.0959486 0.507887 0.0676697 0.371376 
0.0682856 0.522236 0.0716348 0.424701 0.0951759 0.519568 0.0913398 0.562424 0.664222 
0.0811019 0.425576 0.0841574 0.468086 0.0855787 0.215785 0.12606 0.449351 0.0991374 
0.391427 0.0632323 0.431053 0.121574 0.506023 0.082586 0.46988 0.0662296 0.327744 
0.0890784 0.349661 0.0671381 0.394996 0.0631053 0.384961 0.0879625 0.223684 0.137176 
0.0773364 0.45922 0.08106 0.290619 0.157282 0.650843 0.0925041 0.275108 0.174789 
0.388013 0.0887063 0.503134 0.0753313 0.372607 0.120081 0.263542 0.159671 0.461194 
0.0669899 0.320699 0.0690124 0.456077 0.078089 0.0588926 0.318517 0.142449 0.632402 
0.0686413 0.230138 0.162692 0.506672 0.108918 0.372466 0.131197 0.230967 0.145361 
0.360947 0.0441465 0.318178 0.0903464 0.391455 0.108708 0.279784 0.0831153 0.500704 
0.0676083 0.394843 0.117309 0.320249 0.103475 0.626272 0.0703404 0.457122 0.0824261 
0.440956 0.0570922 0.446265 0.0801297 0.497357 0.053806 0.316415 0.151484 0.305437 
0.10458 0.356461 0.126407 0.289294 0.0713419 0.616898 0.0874955 0.306566 0.146784 
0.236595 0.114964 0.323077 0.0766051 0.385612 0.121061 0.268896 0.162825 0.297574 
0.120458 0.381822 0.0874005 0.325936 0.156476 0.616615 0.0716014 0.377143 0.100378 
0.492117 0.096678 0.342121 0.061098 0.229804 0.147985 0.373026 0.133804 0.612727 
0.0817397 0.327748 0.105165 0.331937 0.0863989 0.319471 0.215871 0.368727 0.0664491 
0.421913 0.122689 0.314271 0.123516 0.288963 0.159499 0.320957 0.13709 0.317841 
0.12198 0.528372 0.0737936 0.412441 0.0748917 0.407874 0.114537 0.342548 0.130472 
0.251193 0.227614 0.525782 0.079816 0.379378 0.055574 0.405998 0.0708099 0.32611 
0.0988689 0.438897 0.0812388 0.365264 0.162008 0.399498 0.158836 0.315025 0.0811624 
0.427234 0.0804758 0.182565 0.139167 0.319112 0.097974 0.305986 0.171791 0.255432 
0.168398 0.395518 0.163738 0.36233 0.117088 0.0675827 0.186592 0.093315 0.315129 
0.57275 0.132806 0.270171 0.0788214 0.508035 0.136991 0.451332 0.0710273 0.490056 
0.0860645 0.22932 0.12548 0.516583 0.058602 0.20493 0.0900071 0.240704 0.0563463 
0.101744 0.236979 0.0831799 0.128289 0.121151 0.252149 0.0927062 0.168936 0.147767 
0.524154 0.116355 0.226095 0.0993583 0.51319 0.108627 0.174695 0.105274 0.135623 
0.132119 0.344582 0.105434 0.404042 0.0634723 0.208105 0.0842053 0.272757 0.065129 
0.190805 0.121167 0.206492 0.165874 0.231267 0.085507 0.377019 0.122968 0.218488 
0.136778 0.255257 0.0874045 0.296979 0.104999 0.242585 0.110227 0.660276 0.0703356 
0.199064 0.131405 0.218541 0.106791 0.198919 0.174239 0.249973 0.0693239 0.20958 
0.0938484 0.203757 0.0873441 0.207251 0.13315 0.229968 0.0776577 0.279623 0.0874727 
0.284733 0.112407 0.631146 0.0900074 0.295884 0.0848999 0.29625 0.0792963 0.227754 
0.0647507 0.293202 0.107211 0.269623 0.0727747 0.247404 0.0847407 0.288347 0.121787 
0.427291 0.0884485 0.230454 0.180081 0.228307 0.135723 0.284375 0.105026 0.221348 
0.204774 0.250905 0.197036 0.163084 0.155545 0.248648 0.129472 0.219064 0.178719 
0.198678 0.174814 0.205527 0.160447 0.283411 0.120587 0.225021 0.165924 0.211666 
0.141994 0.301566 0.099367 0.211651 0.158944 0.216582 0.200309 0.153763 0.227777 
0.120228 0.240942 0.121982 0.233813 0.174871 0.108619 0.226771 0.114042 0.202294 
0.161051 0.262664 0.155331 0.538807 0.0969096 0.250916 0.0999263 0.387073 0.0996777 
0.299831 0.094753 0.20628 0.19066 0.311191 0.117633 0.250564 0.151624 0.243141 
0.177972 0.196998 0.105338 0.323963 0.109503 0.313828 0.131223 0.298332 0.133026 
0.294792 0.120086 0.417051 0.14901 0.373295 0.148665 0.224761 0.180794 0.1662 
0.159822 0.277486 0.0736824 0.336354 0.103708 0.307062 0.116346 0.47795 0.0655231 
0.467876 0.106852 0.170481 0.120527 0.116274 0.189869 0.0961727 0.148503 0.090143 
0.20783 0.110733 0.1734 0.159659 0.427805 0.106782 0.18799 0.137371 0.179195 
0.146772 0.463141 0.0762454 0.0934144 0.390491 0.10983 0.295276 0.106235 0.187338 
0.103033 0.19506 0.131981 0.462489 0.0939399 0.168906 0.103302 0.144003 0.136493 
0.239382 0.120123 0.229662 0.118784 0.158787 0.142624 0.228842 0.149036 0.349724 
0.125807 0.227645 0.137542 0.214087 0.137567 0.318921 0.138442 0.387573 0.105349 
0.385844 0.11323 0.268942 0.0851577 0.344211 0.0881493 0.371171 0.127071 0.186534 
0.179888 0.193665 0.121147 0.299514 0.142516 0.193178 0.181622 0.230455 0.177433 
0.171148 0.12114 0.244648 0.0898008 0.19735 0.106232 0.174318 0.113934 0.22896 
0.150055 0.22599 0.154294 0.295369 0.138984 0.321431 0.130314 0.169497 0.150229 
0.3295 0.127066 0.198898 0.188614 0.221491 0.111463 0.222445 0.172881 0.197692 
0.123582 0.225427 0.126455 0.291368 0.128141 0.199828 0.18128 0.314127 0.07343 
0.280103 0.127027 0.209715 0.166975 0.246971 0.154251 0.191874 0.141869 0.236815 
0.153937 0.542747 0.0833063 0.151206 0.142258 0.25877 0.186193 0.199591 0.16281 
0.24976 0.208967 0.234069 0.161402 0.24133 0.179135 0.202524 0.193946 0.25769 
0.109255 0.225976 0.156272 0.527719 0.117271 0.205961 0.190579 0.250063 0.235497 
0.221869 0.195185 0.283426 0.187181 0.146795 0.139986 0.290294 0.122853 0.281229 
0.191851 0.191739 0.12228 0.226825 0.134346 0.317701 0.108905 0.251887 0.166051 
0.225081 0.156006 0.220123 0.194493 0.240175 0.177354 0.269777 0.19466 0.319285 
0.253002 0.657202 0.0929315 0.185721 0.170261 0.656582 0.105398 0.462747 0.0943069 
0.376699 0.0979116 0.199362 0.0987146 0.470177 0.0887255 0.374481 0.109012 0.2787 
0.110672 0.172212 0.162746 0.135695 0.129066 0.161453 0.1565 0.50724 0.0978723 
0.178734 0.11017 0.451308 0.105982 0.234299 0.118645 0.299623 0.104885 0.213589 
0.127919 0.250767 0.0822122 0.130846 0.12523 0.130194 0.12379 0.341696 0.0677941 
0.461951 0.120237 0.394475 0.111845 0.209501 0.150435 0.204085 0.146749 0.50822 
0.106145 0.20527 0.114814 0.458227 0.110478 0.1886 0.141243 0.179574 0.172388 
0.16217 0.141167 0.274954 0.130695 0.366138 0.127206 0.376048 0.114597 0.242118 
0.187468 0.175153 0.159191 0.197916 0.192074 0.63215 0.106333 0.210282 0.170908 
0.168737 0.164742 0.190006 0.135833 0.234931 0.137588 0.28829 0.125652 0.276372 
0.118574 0.147903 0.135834 0.224704 0.0997583 0.179472 0.115689 0.176618 0.158222 
0.199535 0.156239 0.247457 0.111813 0.141772 0.138616 0.247196 0.136139 0.333991 
0.138049 0.17615 0.0941397 0.163939 0.111616 0.171229 0.146324 0.232585 0.155256 
0.429331 0.0928539 0.296863 0.126696 0.225897 0.198992 0.20192 0.158721 0.195173 
0.186179 0.167849 0.155202 0.529882 0.108244 0.188952 0.176138 0.214896 0.139716 
0.263429 0.201825 0.411721 0.0774914 0.142107 0.133969 0.202746 0.191566 0.219084 
0.112092 0.259933 0.212618 0.188848 0.177222 0.247609 0.237087 0.430804 0.125388 
0.220734 0.118195 0.275129 0.113644 0.191036 0.176561 0.221507 0.191942 0.168795 
0.165291 0.202272 0.1943 0.335378 0.172961 0.230573 0.228037 0.294214 0.0815019 
0.135704 0.152274 0.187254 0.177622 0.469122 0.0880443 0.520973 0.104472 0.145379 
0.106145 0.164304 0.128796 0.463364 0.0967909 0.222278 0.129617 0.19417 0.126984 
0.283252 0.123952 0.158372 0.150613 0.188741 0.16722 0.204196 0.121771 0.502391 
0.108376 0.214323 0.124384 0.332084 0.124747 0.184581 0.168395 0.444392 0.0962913 
0.188807 0.164626 0.316476 0.0931285 0.498644 0.0985762 0.231176 0.129333 0.188013 
0.16948 0.310752 0.106159 0.236204 0.150822 0.201481 0.15422 0.178221 0.146661 
0.224347 0.151093 0.268107 0.10934 0.448511 0.110487 0.213616 0.145504 0.150564 
0.139613 0.177208 0.165973 0.494021 0.11157 0.151985 0.146553 0.189669 0.168376 
0.190822 0.155856 0.19494 0.174394 0.155171 0.132869 0.379115 0.137217 0.207766 
0.182773 0.159153 0.147832 0.306434 0.125377 0.257482 0.144469 0.160067 0.157043 
0.329905 0.141665 0.203607 0.178772 0.221685 0.192003 0.278165 0.180559 0.281158 
0.167066 0.449377 0.11784 0.20965 0.196497 0.378445 0.129722 0.44666 0.0938667 
0.19017 0.171555 0.175916 0.16994 0.203287 0.188986 0.177816 0.143045 0.23311 
0.196586 0.350822 0.176035 1.16194 0.059983 0.246423 0.0686436 0.245232 0.0614218 
0.953971 0.0556026 0.881554 0.0808996 0.243426 0.0776593 0.948416 0.0808566 0.244481 
0.0469923 0.242116 0.0593997 0.243518 0.0663616 0.947693 0.047956 0.110088 0.107156 
0.239423 0.0720605 0.254826 0.0489702 0.235775 0.0685776 0.2501 0.0839432 0.238198 
0.101121 0.206128 0.0746601 0.226029 0.109742 0.242371 0.076028 0.401564 0.075089 
0.11203 0.10882 0.864277 0.0452578 0.118709 0.107706 0.203566 0.0933949 0.21907 
0.103227 0.398076 0.0688256 0.276079 0.10264 0.238967 0.0530273 0.271267 0.0519744 
0.176426 0.167231 0.153875 0.0957346 0.184874 0.0506785 0.209477 0.200764 0.270846 
0.0865308 0.260255 0.0778993 0.181639 0.0777812 0.755544 0.0752748 0.854783 0.100255 
0.259563 0.0629691 0.180314 0.0827112 0.573253 0.0791087 0.155937 0.094032 0.274676 
0.100097 0.257202 0.0699834 0.148131 0.134239 0.808291 0.0678929 0.807387 0.0635919 
0.239927 0.106752 0.120994 0.113402 0.177244 0.107807 0.183063 0.104425 0.146243 
0.0854519 0.224366 0.112206 0.455168 0.0888957 0.133221 0.11845 0.755295 0.0992819 
0.283631 0.0978057 0.14212 0.130971 0.745231 0.0975368 0.165826 0.150681 0.162805 
0.120377 0.216003 0.155491 0.136024 0.129545 0.163263 0.150607 0.205398 0.16992 
0.238416 0.115477 0.520271 0.0941655 0.183396 0.138471 0.189074 0.084622 0.152021 
0.144602 0.33909 0.0978347 0.215621 0.115744 0.320855 0.101306 0.567035 0.0791557 
0.186414 0.0722717 0.175354 0.168992 0.12207 0.111648 0.18041 0.137605 0.756332 
0.0844496 0.147173 0.134907 0.148374 0.142422 0.566521 0.099811 0.157488 0.112057 
0.203876 0.0917251 0.192241 0.172454 0.215596 0.130935 0.203934 0.184071 0.525308 
0.0984059 0.200961 0.0873769 0.665889 0.0839223 0.130295 0.117469 0.565486 0.0857379 
0.563269 0.092947 0.194378 0.121723 0.128435 0.114174 0.198494 0.0956111 0.188305 
0.169544 0.406217 0.102299 0.185988 0.163121 0.166337 0.150891 0.205236 0.109816 
0.140859 0.116934 0.663734 0.105071 0.19852 0.148274 0.198149 0.110536 0.159742 
0.143943 0.662856 0.0632299 0.511563 0.116823 0.182349 0.111844 0.131379 0.127171 
0.163523 0.14737 0.509524 0.100428 0.175597 0.12441 0.150171 0.0722472 0.141871 
0.132421 0.185947 0.164188 0.162416 0.142363 0.446291 0.104142 0.146337 0.140215 
0.151667 0.14701 0.32548 0.0817276 0.140667 0.130794 0.283464 0.0956706 0.196678 
0.175176 0.44288 0.104082 0.213633 0.196494 0.148018 0.141905 0.207352 0.107112 
0.626922 0.0914943 0.199335 0.156726 0.169016 0.159011 0.397178 0.103182 0.188081 
0.173613 0.196651 0.1902 0.165232 0.162699 0.20507 0.177077 0.171144 0.133128 
0.19242 0.178908 0.160424 0.141305 0.160831 0.15147 0.49561 0.105272 0.240951 
0.185077 0.20991 0.183398 0.226645 0.165314 0.380538 0.113482 0.161779 0.15657 
0.172329 0.162403 0.139349 0.133985 0.304476 0.127335 0.206765 0.165375 0.205036 
0.189497 0.214993 0.125039 0.218934 0.204268 0.219783 0.194655 0.326264 0.137875 
0.245691 0.187524 0.199853 0.177442 0.194589 0.176343 0.201952 0.193443 0.19959 
0.192201 0.238421 0.191245 0.195291 0.183066 0.208108 0.196648 0.165902 0.155212 
0.197149 0.173668 0.186133 0.172769 0.175925 0.170122 0.369672 0.14343 0.212654 
0.169168 0.253829 0.245237 0.954155 0.0795354 0.948588 0.0774468 0.881326 0.0761858 
0.94822 0.0758468 0.112412 0.0994688 0.881137 0.0735808 0.0966776 0.0925725 0.235979 
0.116793 0.234009 0.0735185 0.159482 0.0892358 0.143324 0.136225 0.120768 0.109749 
0.149401 0.134944 0.573883 0.0853789 0.154094 0.143393 0.228208 0.115825 0.217795 
0.0953691 0.147412 0.107006 0.216742 0.100689 0.130859 0.116788 0.210404 0.113768 
0.75598 0.0907836 0.457022 0.0817265 0.278822 0.0983946 0.143478 0.120009 0.141832 
0.126838 0.202418 0.18965 
