# vtk DataFile Version 4.1
vtk output
ASCII
DATASET POLYDATA
POINTS 1300 float
16125 47875 54078.1 15403.1 46111.5 52453.9 15186.6 45582.4 51966.6 
18196.3 44161.6 47872.3 12081.3 42501.9 46585.9 17720.6 42409.6 43239.9 
9358.76 39472.8 43168.4 23461.8 40711.2 44468.5 19769.7 40753.6 38701.3 
26817.6 37799.9 44352.4 7516.02 35143.9 43502.1 7174.16 36912.7 38469.8 
4781.25 33699.4 34742.2 6952.13 32667.9 44815.2 5446.41 25960.9 43765.6 
31121.4 31117.2 43250 5387.94 34221.2 34780 4213.03 31890.6 30617.2 
28175.7 36587 41054.2 26769.6 38593.8 35515.6 17629.8 41101.9 34560.7 
5928.1 31964.7 41236.8 4207.87 27507.8 38351.6 31629.8 33179.7 36804.7 
30558.5 34402.6 37512.5 31593.8 34305.8 33710.9 21887.7 41047.3 31613.8 
6060.72 27773.6 44746.6 6070.31 22141.2 48148.4 30848.1 31607.6 43194.7 
30241.8 26734.4 44281.2 4529.52 31870.2 31380.2 4207.87 27250 28039.1 
31308.4 33546.5 37017.1 31656.7 29828.1 34484.4 31283.1 34334.8 34851.4 
29910.8 37562.5 31906.2 4397.62 30409 29685.5 4207.87 30343.8 25718.8 
14376.2 41120.2 28421.9 10453.1 40516 27781.2 15093.8 41233.8 22625 
22726.5 41535.9 28028.7 5996.17 35306.2 35488.7 5266.97 35242.2 30617.2 
4339.36 27591.7 28375.3 4781.25 23598.3 27265.6 4247.37 27352.5 28139.9 
5039.06 26171.3 23398.4 30472.2 28586.2 43868.3 30884.2 25187.5 39898.4 
30161 26841.1 44172.9 29088.8 22867.2 44539.1 31329.2 30512.7 34428.6 
30885.3 28023.4 31390.6 4801.56 26525.7 24820.9 4720.41 29828.1 21593.8 
30383.8 36030.2 32523 29074.4 36531.2 27265.6 4967.8 26277.6 23825.2 
6784.97 23640.6 20820.3 12257.7 40793.9 28076 10710.9 40213.8 23914.1 
25258.8 38335.9 20562.5 26437.5 40183.9 31132.8 30725.5 35386 33407.8 
30562.5 33437.5 29000.2 15241.4 41365.3 22979.4 24752.3 39491.2 22096.9 
22828.1 40023.1 18757.8 30550.9 25331.3 40129.3 30046.9 22787.8 37320.3 
10904.3 40323.7 28039.8 7101.56 38129.7 28554.7 29589.6 36686.6 30091.2 
27984.4 39466.2 28296.9 4648.73 24796.4 27598.5 5396.91 20031.2 30617.2 
4741.45 23957.7 27365.5 6801.47 20804.7 24687.5 5540.15 22520.6 26628.5 
6473.53 19773.4 27265.6 4340.7 30389.5 28495.5 4705.97 33179.7 26750 
29395.2 24287.2 44959.9 27984.4 20804.7 48670.2 6611.2 21304.1 24842.8 
7875 21062.5 22053.7 29072.4 23050 44501 27855.5 19000 42734.4 
6580.89 24523.2 20987.8 8132.81 23778.8 17984.4 28998.2 36464.9 27451 
27536.8 35757.8 23140.6 4892.73 29276.7 21760.2 5243.25 31632.8 18500 
30470.1 33494.4 29875.2 29588 30085.9 26750 30014.1 23328.2 38411.8 
28552.6 20289.1 38093.8 16401.3 41631.3 19482.9 13804.7 40193.2 16437.5 
29930.7 22966.2 37443.9 29336.3 22093.8 34226.6 29438.8 22651.8 34702.9 
28582.5 23898.4 29585.9 6096.92 25049.5 21839 6328.12 26683.8 18500 
27696.7 35406.6 23682.9 26437.5 33695.3 20151 5601.3 20545.5 29867.8 
6981.94 16421.9 31390.6 23405.4 39863.5 19759.5 23403.6 37304.7 16953.1 
5082.06 30549 19999.7 6070.31 29267.1 17210.9 24348.2 39602.9 21395.7 
21281.2 42256.8 21335.9 29367.1 22261.2 34369.5 27521.3 19257.8 35257.8 
4869.73 33095.9 26942.9 5812.5 36866.4 24945.3 5330.81 31433.9 18663.9 
6271.41 32921.9 15921.9 11298.7 40434.2 25495.6 8132.81 39160.9 24945.3 
7903.05 21055.5 22417.5 10512.9 20546.9 19273.4 28946.5 23954.5 30787.1 
29531.2 26703.4 28296.9 7869.84 24104.8 18434.4 9247.59 24671.9 15406.2 
28184.4 20344.5 43891.1 26467.4 16164.1 45570.3 11119 40295.9 24179.2 
5983.89 29547.4 17562.7 7359.38 28796.9 14345.1 5152.5 34227 26343.6 
4923.56 34468.8 22882.8 28651.1 20730.4 38179.7 26437.5 17580 38093.8 
6946.77 29022 15310.3 8132.81 26734.4 15006.1 23217.5 37462 17353.8 
22736.3 34210.9 14375 28665.7 21119.9 34707 26801.5 19257.8 31906.2 
6843.65 17019.5 31553 8065.78 13843.8 33710.9 28548.7 23715 29897.6 
26806.7 22351.6 26750 6159.31 32411.8 16337.4 7285.12 32148.4 13601.6 
26465.3 33585.8 20668.4 24738 30859.4 16953.1 6928.11 32586.6 14597.5 
8192.62 34468.8 12312.5 6940.48 16601.2 31439.3 9164.06 15339.1 28812.5 
9082.59 39542.9 25110.4 8132.81 39134.1 22625 7252.23 32083.1 13820.7 
8350.41 30085.9 11539.1 5173.54 34672.9 23841.4 6136.31 36531.2 21078.1 
26438.4 17902.9 38121.2 23910.9 15132.8 38093.8 27186.5 19592.5 32994.8 
24890.6 16993.2 32679.7 7601.31 15050.5 32890.9 6585.94 14845.1 36289.1 
26438 16417.8 45239.5 24890.6 13486.9 45828.1 8148.59 14073.9 33574.9 
10083.9 11781.2 35257.8 27506.5 23262.7 27670.3 26455 24671.9 23656.2 
26725 19270.6 32223.7 24632.8 17938.8 29585.9 26778.6 19261.6 32001.5 
26813.9 20546.9 29328.1 24769.3 31515.3 17275.8 22875.6 30085.9 13859.4 
25339.4 14616.7 45237.7 23343.8 12554.7 43419.1 6285.53 36446.2 21308.2 
7494.47 37820.3 19531.2 13922.6 40107.5 16879.6 12000 38654.6 15406.2 
6970.39 14558.3 35851.3 6798.38 13585.9 38609.4 12754.5 39060.6 15498.4 
11484.4 37092.2 11539.1 24701.8 18114.1 29641.5 23085.9 17423.2 27523.4 
23861.8 13041.2 44248.6 22054.7 10874.8 44796.9 26818.2 24688.4 24595.7 
27021.2 27507.8 22625 6877.47 14033.2 37340.7 9537.38 11523.4 38609.4 
23898.2 30857.8 15704.2 22828.1 26642.6 15406.2 26850.9 22454.6 27109.6 
24973.1 20289.1 26492.2 22991.6 30356.1 14071.9 21148.2 30085.9 10765.6 
26944.1 26436.4 23373.9 25460.9 26476.6 20304.7 23149.1 27907.1 15495.7 
21342.1 26476.6 12828.1 12226.4 38776.4 15433.9 8906.25 37820.3 16555.1 
6845.09 13516.6 38359.4 6843.75 11461.6 41445.3 23305.7 17629.5 27770.5 
21539.1 17564.5 25203.1 24283 17968.7 29080.2 21539.1 15336 29585.9 
22924.4 27022 15433.1 22845.7 24414.1 17210.9 6844.16 12078 40519.6 
9857.06 9718.75 41703.1 26886.2 25632.3 23935.9 28502.1 28023.4 24945.3 
24747.4 31056.1 17049.9 24792.7 28023.4 17984.4 22894.5 26031 16108.6 
21326.6 23898.4 15406.2 21411.9 29827.8 11405.7 19476.6 27721.3 8960.94 
22069 17584 25973.3 22312.5 19629.1 22882.8 22637.9 17605 26800 
19784.9 15390.6 26750 21698.1 17570.4 25434.2 18703.1 16568.3 23914.1 
21767.4 15603.9 29857.2 19218.8 13283.8 31132.8 27936.2 27546.3 24447.6 
28500 30593.3 23914.1 19601.6 16868.9 24370.1 18703.1 18226.6 21193.6 
19509.9 13836 30644 16382.8 12753.7 30101.6 26564 24676.8 23938.1 
24375 22443.3 22109.4 24828 23105.7 22314.4 23389.1 22867.2 20046.9 
18571.7 13511.3 30481.3 16898.4 11779.2 33195.3 26978.5 27434 22730.4 
26953.1 30271.6 21078.1 19003.3 13660.7 30556.1 17929.7 14101.6 28249.4 
23527.8 22751.1 20478.6 21605.1 21578.1 18757.8 17640.3 12385.8 32642.4 
18014.2 11781.2 36031.2 21934.5 21699.3 19294.6 20250 20181.8 19273.4 
21703.9 21614.5 18918.9 19476.6 21517.3 16437.5 20321.5 20462.2 19170.9 
17512 19257.8 18500 20505.6 43242.5 47424.4 19968.6 43497.9 47393.8 
14592.5 43163.6 44017.5 8703.4 38704.7 41758.8 24046.3 39617.6 41789.3 
18699.3 41305 40260.5 19191.7 41051.3 39543.3 7632.97 37450.3 39456.5 
6395.47 30481.6 44144 28461 36332.3 40361.6 30423.3 33953.1 40414.1 
5039.06 32148.4 39172.4 30775.9 34382.2 36714.2 30304.7 35901.2 35515.6 
16269.3 41178.1 30119.7 5510.96 26306 43777.8 4722.47 24929.7 41960.9 
5258.41 32282.6 39596.5 5033.59 30296.8 39303.4 4207.87 29828.1 36804.7 
4728.66 32921.9 36546.9 4489.92 31431.9 30871.8 4207.87 28281.2 31648.4 
27336.4 38205.2 35925.2 27726.6 38677.3 33195.3 12000 41020.3 30875 
4430.83 28224.8 38392 4207.87 27250 36804.7 4284.08 28879.2 31258.3 
4207.87 26476.6 30359.4 30650.5 27628.6 42379.4 31593.8 28023.4 40444 
31558.5 30033.5 34467.6 32109.4 28977.3 37062.5 31363.1 31695.3 35017.5 
31622.6 31375 32164.1 23329.2 41461.7 25529 22647.7 42203.1 23656.2 
31844.3 29057.5 36226.5 31593.8 26909.7 37578.1 31627.2 29889.7 34479.4 
31604.1 27765.6 34484.4 27849.5 38643.7 33345.2 28500 38961.9 31390.6 
23229.2 41510 26076.8 25226.8 41171.9 25460.9 4666.68 26519.4 26000 
5223.66 24414.1 24945.3 30784.2 25230.6 39967.7 31135.9 25960.9 38609.4 
28602.4 38302.6 29321.1 27468.8 39692 30101.6 30527.4 33459.1 29332.7 
30057.2 34984.4 28296.9 27934.7 39299.9 28429 26437.5 40523.2 27265.6 
9525.62 39613.7 28467.5 8390.62 39483.7 30101.6 31502.4 28355.6 34302.2 
30820.3 26669.4 33195.3 21712.3 41540.3 21424.3 18445.3 42257.8 21851.6 
15025.9 41389.2 25912.6 16640.6 41738 25203.1 8545.52 39358.1 29732.6 
7307.81 38335.9 30617.2 31041.4 29346.5 32516.5 30636.8 29828.1 30101.6 
5667.92 25516.2 22593.8 6268.31 23125 22882.8 4541.69 31417.9 27905.5 
4708.03 33179.7 29070.3 28135 39000.8 28696.7 27833.8 38851.6 26750 
29625 25053.4 44723.9 29015.6 24414.1 47663.8 6849.83 23868.4 20784.1 
7875 22556.8 20046.9 30552 33444 29099.9 29591.1 33437.5 26750 
28676.9 22259.7 46165.7 28039 20031.2 46085.9 29380.3 25154.1 46180.1 
29273.4 25960.9 47404.9 26445.8 33662.4 20306.2 25597 36015.6 19531.2 
30830.9 28197.8 31748.6 30106.7 25960.9 31132.8 23001.3 39975.2 19058.3 
20831.6 41687.5 19015.6 28570 35579.8 25845.1 28584.6 34210.9 24945.3 
15657.3 41166 18245.4 15867.2 41246.1 15664.1 23021.4 39003.8 18252 
22194.9 38851.6 16437.5 29051.6 36511.3 27321.2 28353.6 37562.5 26492.2 
6417.74 20282.6 26949.2 7875 18112.1 26234.4 7646.27 38373.6 28165.8 
6276.56 37304.7 27265.6 8053.92 23876.6 18119.4 9421.88 22093.8 18327.8 
28579.2 34327.9 25116.1 28574.2 32406.2 24429.7 27780.3 19127 42887.9 
27210.9 17917.2 41960.9 4755.06 33154.5 26807.9 4213.03 32406.2 24687.5 
27584.8 35652.4 23303.3 26970.7 37304.7 22882.8 15138.1 41273.2 22731.3 
13546.9 40718.1 21078.1 26191.2 34368.4 20073.7 26505.6 35757.8 21078.1 
7088.06 19284.2 26620.4 7491.37 17453.1 28296.9 10401.5 40090.7 25567.2 
9164.06 39699.2 26750 8683.19 23056.5 18215.2 10453.1 22609.4 16265.3 
23073.1 36486.7 16460.2 24117.2 34515.2 16695.3 13840 40167.5 16570.1 
14320.3 40187 13859.4 29345.6 22144 34269.4 28542.3 21320.3 32937.5 
9975.25 22882.4 16635.4 10453.1 23697.3 15148.4 20445 41835 21310.7 
18960.9 42260.9 19789.1 27597.3 19343.8 35270 26811.8 17968.8 35773.4 
7515.51 21130.1 23145.1 9164.06 19127.9 22625 19397.7 42144 19983.3 
19218.8 42247.5 18242.2 22640.4 42011 24053.6 21281.2 42260.9 22882.8 
29057.8 22791.4 32835.7 28500 22033.9 31390.6 7313.38 15798.8 32382.5 
8648.44 14307.8 31390.6 11742.2 39636.3 18242.2 26818.8 17334.2 44669.1 
25789.9 15390.6 43765.6 9246.05 24695 15526.4 10195.3 25118.4 13601.6 
[...]
CELL_DATA 1299
SCALARS radius float
LOOKUP_TABLE default
1.15914 0.802795 1.01298 0.799691 0.694249 0.792923 0.885556 0.67773 0.879451 
0.415519 0.743803 0.0621157 0.325392 0.0917155 0.0728258 0.73866 0.0835491 0.637112 
0.0770693 0.570434 0.305988 0.113247 0.0753315 0.618319 0.0716982 0.491973 0.289186 
0.145381 0.748145 0.0566791 0.734798 0.0570312 0.362759 0.051721 0.572425 0.0832062 
0.729141 0.0787888 0.547976 0.0713847 0.0601722 0.481838 0.74043 0.12873 0.685065 
0.0752903 0.52447 0.0619046 0.744923 0.0556152 0.415072 0.0622571 0.345804 0.0702962 
0.515909 0.0743164 0.54646 0.0496293 0.4034 0.084181 0.419914 0.0765037 0.0710313 
0.104398 0.569519 0.0630826 0.437628 0.464917 0.0687071 0.69842 0.0486017 0.306523 
0.115226 0.542899 0.0774985 0.560922 0.0990547 0.363421 0.0938041 0.362341 0.0977528 
0.391567 0.0527101 0.403216 0.130631 0.290485 0.0959655 0.3775 0.0614426 0.376226 
0.0784743 0.525735 0.0720764 0.415379 0.0810358 0.278245 0.152579 0.696715 0.0814994 
0.409402 0.0752505 0.684353 0.048798 0.681661 0.0775792 0.386837 0.147164 0.51401 
0.0532617 0.500247 0.072589 0.416875 0.0987206 0.40798 0.0992118 0.449532 0.114335 
0.558939 0.074588 0.37724 0.0850268 0.341887 0.110165 0.351926 0.118525 0.272788 
0.16972 0.518136 0.136179 0.330841 0.0857936 0.374523 0.0706724 0.257672 0.296645 
0.098492 0.368043 0.0943528 0.260532 0.0870579 0.26955 0.177147 0.378244 0.0838899 
0.555671 0.057743 0.498949 0.087554 0.509989 0.0684431 0.340362 0.0958671 0.503214 
0.0817682 0.329563 0.17597 0.271819 0.0992632 0.230984 0.105872 0.311911 0.132483 
0.339665 0.0667164 0.250795 0.144959 0.550429 0.0687173 0.450493 0.110557 0.326812 
0.132326 0.292468 0.0967739 0.506527 0.0651583 0.54101 0.0533765 0.138845 0.135433 
0.49116 0.0810553 0.306945 0.139168 0.326133 0.11393 0.387223 0.0917711 0.397633 
0.0969877 0.377154 0.124102 0.534369 0.0870171 0.298518 0.152581 0.492814 0.0790248 
0.388941 0.183748 0.465211 0.109333 0.205478 0.148752 0.300136 0.150409 0.325439 
0.102946 0.419161 0.116767 0.295475 0.117191 0.34342 0.156999 0.431022 0.0867005 
0.531789 0.0697058 0.32272 0.17588 0.329517 0.184403 0.392186 0.0881278 0.25071 
0.0845166 0.267762 0.16971 0.246288 0.225957 0.417552 0.0813473 0.429837 0.153457 
0.34999 0.105127 0.410577 0.118354 0.295697 0.14024 0.321432 0.149519 0.395869 
0.160638 0.390102 0.114392 0.384917 0.106384 0.340682 0.103186 0.228041 0.180658 
0.392311 0.0975142 0.38152 0.0955556 0.328335 0.182569 0.372073 0.122869 0.319683 
0.180668 0.266081 0.225471 0.886659 0.889731 0.19143 0.750553 0.227644 0.68281 
0.681143 0.746398 0.32134 0.62462 0.110321 0.0771386 0.573532 0.102952 0.564237 
0.198857 0.128412 0.177391 0.264236 0.131047 0.147051 0.734437 0.0922329 0.228134 
0.0684522 0.10357 0.227262 0.118962 0.198226 0.0753998 0.69922 0.105436 0.268968 
0.0840961 0.358628 0.120191 0.476492 0.072061 0.224099 0.143064 0.201684 0.0810595 
0.200491 0.160592 0.478617 0.113291 0.524245 0.0540868 0.135512 0.10111 0.244975 
0.120691 0.223306 0.0847754 0.200732 0.0833186 0.29966 0.0815697 0.200544 0.138791 
0.257576 0.150312 0.447654 0.0647469 0.209437 0.133822 0.274459 0.133819 0.396179 
0.103124 0.384121 0.10141 0.234793 0.0917254 0.412968 0.116166 0.149287 0.139771 
0.145485 0.141419 0.219913 0.104085 0.16953 0.0882592 0.197123 0.13902 0.263416 
0.0961495 0.226272 0.122538 0.522545 0.0577346 0.405687 0.100246 0.393352 0.134054 
0.138023 0.108141 0.268762 0.0740139 0.225796 0.0921704 0.256311 0.133275 0.177073 
0.134547 0.196063 0.110233 0.156484 0.109061 0.161619 0.116686 0.239739 0.0648678 
0.174064 0.137278 0.264381 0.149297 0.242403 0.124278 0.253835 0.134289 0.364007 
0.122721 0.16402 0.15856 0.144939 0.0747077 0.240944 0.135442 0.249837 0.132907 
0.15158 0.145303 0.287187 0.150179 0.203569 0.182599 0.167581 0.128457 0.52186 
0.0758687 0.46744 0.104016 0.106354 0.342685 0.110201 0.259734 0.13645 0.243739 
0.136037 0.144555 0.137223 0.203016 0.160561 0.270083 0.0830124 0.220074 0.163088 
0.184897 0.172515 0.241162 0.191988 0.289828 0.157009 0.219097 0.166161 0.273575 
0.136322 0.303122 0.148908 0.234168 0.167716 0.130053 0.126984 0.181579 0.144142 
0.323172 0.116194 0.26828 0.118676 0.254322 0.104815 0.268474 0.148436 0.288074 
0.159765 0.226894 0.162698 0.169554 0.131184 0.317181 0.175437 0.331572 0.170013 
0.211946 0.199405 0.275203 0.171853 0.234115 0.185899 0.400702 0.132006 0.195306 
0.139818 0.264025 0.154819 0.30138 0.127139 0.249017 0.170137 0.244933 0.123413 
0.256665 0.175889 0.271516 0.176969 0.206496 0.197523 0.252407 0.132018 0.237181 
0.188563 0.299666 0.127231 0.172445 0.794166 0.421399 0.0884967 0.496214 0.0727313 
0.207986 0.0918658 0.246158 0.0519536 0.493841 0.166958 0.0962582 0.223104 0.0938482 
0.0996579 0.23561 0.102533 0.188628 0.0862774 0.747479 0.0890809 0.570568 0.100752 
0.15764 0.153215 0.205634 0.177819 0.16837 0.0933194 0.689369 0.061915 0.217473 
0.146593 0.191333 0.124983 0.182683 0.0911176 0.149781 0.14213 0.440299 0.115579 
0.187347 0.166592 0.189121 0.107066 0.132315 0.108655 0.380113 0.103993 0.186819 
0.144107 0.151288 0.102646 0.376935 0.100707 0.144087 0.124902 0.122782 0.179487 
0.114857 0.162563 0.147351 0.142691 0.13717 0.20262 0.0989506 0.232052 0.141258 
0.20976 0.119172 0.30844 0.0803219 0.168292 0.156015 0.411161 0.116981 0.23043 
0.115783 0.252047 0.120376 0.388092 0.0980173 0.205511 0.134737 0.135967 0.131649 
0.218325 0.127816 0.24745 0.130893 0.133623 0.13074 0.368222 0.0869593 0.371938 
0.147691 0.209562 0.10808 0.23936 0.125598 0.205733 0.120465 0.171261 0.15444 
0.186884 0.165655 0.238469 0.101725 0.168457 0.131135 0.25593 0.152285 0.223317 
0.0970423 0.154827 0.145758 0.146067 0.142996 0.247248 0.131505 0.256576 0.179499 
0.216047 0.166056 0.175268 0.109039 0.22615 0.208635 0.401589 0.123751 0.209413 
0.133901 0.308863 0.140935 0.274096 0.174046 0.181001 0.174983 0.261498 0.145786 
0.213957 0.171868 0.132684 0.127225 0.160315 0.153087 0.306188 0.15555 0.216445 
0.157891 0.215229 0.200489 0.284042 0.149956 0.263627 0.178968 0.248682 0.149642 
0.269365 0.166374 0.273035 0.1958 0.212082 0.199413 0.299748 0.155011 0.185735 
0.179708 0.28028 0.157677 0.310478 0.136701 0.26349 0.243136 0.318481 0.1142 
0.235772 0.179966 0.253558 0.0946082 0.247385 0.164157 0.225501 0.20103 0.275184 
0.114356 0.187938 0.178745 0.508628 0.109195 0.216316 0.173215 0.316812 0.169715 
0.275948 0.211901 0.179636 0.0874435 0.0814405 0.886254 0.0836454 0.125392 0.245366 
0.0870829 0.683879 0.078332 0.879649 0.0770993 0.199938 0.0993057 0.879968 0.0904941 
0.241654 0.091477 0.114343 0.12732 0.124368 0.637562 0.081827 0.149863 0.0984077 
0.111056 0.500105 0.0532303 0.230597 0.0991183 0.14256 0.111253 0.749504 0.0815505 
0.114985 0.111049 0.618863 0.0854931 0.110824 0.133927 0.124788 0.164042 0.0931661 
0.567765 0.0910565 0.152153 0.139483 0.136194 0.127414 0.163663 0.148969 0.113813 
0.181152 0.170482 0.210648 0.108803 0.551817 0.0461816 0.151043 0.0869096 0.745418 
0.0937727 0.740861 0.0891596 0.192129 0.170709 0.194996 0.181105 0.361673 0.105814 
0.19318 0.106477 0.312288 0.118302 0.163235 0.127668 0.144812 0.130533 0.130608 
0.174935 0.134356 0.366032 0.101383 0.175354 0.127536 0.41472 0.0965497 0.123675 
0.115177 0.126814 0.123446 0.180281 0.116452 0.1293 0.120535 0.200465 0.115372 
0.263973 0.109281 0.181732 0.0942645 0.196806 0.134969 0.1829 0.154973 0.14531 
0.136181 0.195896 0.167494 0.147751 0.128945 0.2129 0.128165 0.181078 0.122244 
0.190173 0.109851 0.155607 0.0582611 0.503237 0.104772 0.184041 0.163786 0.167483 
0.135154 0.169332 0.159839 0.15401 0.0983465 0.26877 0.138413 0.171418 0.151609 
0.148951 0.137809 0.19638 0.174689 0.215314 0.157361 0.30346 0.122556 0.165096 
0.140199 0.186231 0.118842 0.236523 0.157256 0.18257 0.174378 0.156692 0.1312 
0.168803 0.109896 0.196422 0.120235 0.257846 0.111021 0.154464 0.133667 0.507804 
0.0995341 0.292899 0.0975047 0.145869 0.131305 0.492922 0.108556 0.470462 0.125861 
0.22012 0.113504 0.176429 0.161716 0.33045 0.111757 0.176574 0.166207 0.143071 
0.135931 0.235556 0.181649 0.171529 0.164561 0.203402 0.114487 0.223119 0.204616 
0.214277 0.205162 0.171718 0.155596 0.244296 0.225596 0.207016 0.18707 0.261066 
0.232209 0.190512 0.147289 0.537944 0.0990987 0.217373 0.116854 0.266898 0.136847 
0.394763 0.138935 0.23239 0.181629 0.199373 0.175351 0.177938 0.138191 0.240441 
0.169802 0.263691 0.171104 0.245399 0.185415 0.412744 0.103293 0.340822 0.156188 
0.247257 0.148239 0.193788 0.179547 0.298174 0.200648 0.239611 0.206994 0.292494 
0.161094 0.167702 0.159163 0.348207 0.0834115 0.228516 0.137312 0.242684 0.214502 
0.207199 0.144212 0.228535 0.215847 0.174564 0.168465 0.1608 0.141875 0.248683 
0.21025 0.257044 0.176742 0.141927 0.110664 0.114563 0.799923 0.0763595 0.193735 
0.0601124 0.219156 0.0700289 0.0984927 0.131986 0.120715 0.0835225 0.79317 0.0774803 
0.117081 0.231024 0.0810971 0.126055 0.132506 0.0815862 0.169436 0.0832909 0.423068 
0.0962814 0.157727 0.11115 0.10842 0.12127 0.136633 0.122929 0.348888 0.091517 
0.070183 0.108331 0.308197 0.0854966 0.142669 0.0916849 0.120383 0.110789 0.620525 
0.066938 0.226388 0.062464 0.145061 0.131562 0.145461 0.284663 0.0693722 0.147994 
0.134161 0.166527 0.091059 0.199403 0.0701013 0.123185 0.729592 0.0896494 0.747915 
0.090065 0.176236 0.116932 0.173941 0.110436 0.150272 0.126962 0.151604 0.113557 
0.448974 0.0926744 0.134897 0.128266 0.134124 0.180706 0.113047 0.122071 0.113196 
0.157068 0.140339 0.14546 0.13679 0.561727 0.0912996 0.543848 0.0943871 0.204894 
0.175997 0.137269 0.130301 0.279751 0.106827 0.132538 0.120557 0.466485 0.100678 
0.172162 0.152171 0.152228 0.142904 0.169379 0.140692 0.169435 0.15909 0.172848 
0.166137 0.260715 0.119572 0.131398 0.125933 0.412196 0.112266 0.192726 0.155532 
0.167802 0.151794 0.501719 0.103499 0.166769 0.136314 0.171132 0.11225 0.166951 
0.147958 0.175819 0.157671 0.160191 0.143953 0.284636 0.0926626 0.170747 0.159911 
0.153927 0.141803 0.171165 0.124655 0.193281 0.129735 0.13585 0.107505 0.151179 
0.135794 0.166722 0.113108 0.163092 0.150316 0.351164 0.0935619 0.26858 0.122801 
0.134336 0.129093 0.375989 0.119338 0.145207 0.130895 0.192855 0.175815 0.197472 
0.181229 0.50939 0.107166 0.235472 0.113903 0.210618 0.164535 0.331868 0.140922 
0.336471 0.13197 0.186904 0.171581 0.176977 0.166503 0.298733 0.117986 0.220432 
0.132826 0.193473 0.145854 0.228706 0.12855 0.174755 0.158721 0.218163 0.187766 
0.154936 0.150293 0.188273 0.125305 0.468342 0.126958 0.137996 0.129666 0.201698 
0.179719 0.145546 0.128261 0.237082 0.147144 0.226655 0.17813 0.219319 0.178146 
0.214234 0.176793 0.224833 0.135174 0.255877 0.222538 0.342093 0.153001 0.203309 
0.193563 0.253426 0.206218 0.184972 0.173666 0.137803 0.131581 0.264154 0.229965 
0.224427 0.183989 0.187733 0.144267 0.247777 0.133516 0.208081 0.15634 0.214563 
0.19389 0.223812 0.178306 0.195709 0.181718 0.213647 0.195316 0.378742 0.141278 
0.173116 0.166404 0.266621 0.211332 1.15934 0.0935845 1.01317 0.083147 0.801314 
0.0579664 0.128554 0.0893169 0.80021 0.0819657 0.124499 0.106771 0.198324 0.0922678 
0.694603 0.0799918 0.113828 0.107941 0.139681 0.0837751 0.141428 0.0949967 0.133548 
0.121506 0.123489 0.109154 0.118006 0.101899 0.175551 0.0709625 0.114385 0.100529 
0.880283 0.0901373 0.150474 0.145018 0.191145 0.0622999 0.119839 0.113941 0.114432 
0.0972815 0.208215 0.101127 0.418993 0.0787298 0.140442 0.108439 0.121969 0.109875 
0.167827 0.0929501 0.571046 0.0842462 0.346776 0.0495723 0.191414 0.104028 0.193531 
0.103813 0.162886 0.0947463 0.183012 0.0908254 0.154308 0.115398 0.137385 0.130987 
0.181792 0.111353 0.735806 0.0898426 0.623471 0.0749979 0.173897 0.157109 0.749182 
0.0657075 0.124184 0.11733 0.150647 0.0845839 0.735359 0.0969069 0.234236 0.0992762 
0.180569 0.141109 0.224323 0.108867 0.120384 0.113469 0.237203 0.102735 0.144177 
0.133735 0.150231 0.107801 0.138133 0.111411 0.162413 0.152249 0.215428 0.137216 
0.164618 0.156306 0.126412 0.124324 0.139915 0.127702 0.143451 0.128087 0.128816 
0.123721 0.174419 0.156886 
