# vtk DataFile Version 4.1
vtk output
ASCII
DATASET POLYDATA
POINTS 1300 float
16125 47875 54078.1 15325.8 46314.9 52799.4 18311.3 44216 47965.6 
19307.5 43920.9 47371.7 22804.1 41601.1 46677.4 24117.2 39139.3 39898.4 
17603.4 42470.4 42614 9424.35 38724 43661.5 28551.6 36273.4 44023.4 
23401.7 39955.8 41006.9 21539.1 40224.2 34742.2 27828.6 37064.1 44040.1 
29531.2 35332.9 40414.1 7827.56 35072.5 44639.5 7050.52 36469.8 38380.1 
4728.66 33437.5 34226.6 16453.7 41625.3 37250.8 15609.4 41230.7 31390.6 
6236.55 32484.3 42258.5 24164.3 39408.6 40119.3 27468.8 37622.3 36804.7 
28334.7 36510.6 44028.5 31078.1 31117.2 43513 6880.77 36667.8 37563.2 
10710.9 40214.9 34742.2 29304.4 35711.2 40637.3 22062.9 40421 35230.9 
21281.2 41233.8 29328.1 5900.77 28639.8 43494 4523.44 25445.3 40736.8 
5325.85 33325 34906 4207.87 29570.3 31906.2 15746 41345.1 31465.9 
15351.6 41230.7 27523.4 5870.15 27422.9 44144.2 5959.97 23125 47117.2 
4207.87 29312.5 37320.3 30027.8 31832.5 43893.1 30462.5 27507.8 44281.2 
30763.1 31331.8 43627 32133.1 29570.3 38609.4 30598.7 34661 37413 
30070.6 37046.9 32937.5 26477.4 38158.3 37799 26179.7 39670.4 32937.5 
15650.3 41265 31413.2 10968.8 40709.9 30101.6 4509.72 30151 32210.9 
4207.87 26476.6 28296.9 4754.54 31103.2 33019.4 4207.87 31117.2 25976.6 
31556.1 29845.2 38915.7 31638.1 28539.1 33968.8 21889.3 41081.8 30344.4 
24117.2 41716.4 25203.1 21351.3 41216 29386.3 19218.8 41747.3 25460.9 
15581.5 41361.9 27873.2 15609.4 41535.9 23140.6 30043.8 36380.7 33077.5 
23473.6 41411.6 25570.8 23728.4 41171.9 22109.4 11817.2 40592.1 29799.4 
8648.44 39654.9 27523.4 6606.67 37091.7 33474.8 5240.16 34984.4 29843.8 
4609.34 26910.6 28538.7 5296.88 23827.3 24687.5 4424.64 26710.9 28427.5 
4723.5 22867.2 29843.8 4407.73 30644.2 27553.3 4581.19 27765.6 23656.2 
5276.97 24669.7 25222 6480.75 23898.4 21078.1 31254.7 30410.1 40705.9 
30618.2 24414.1 39382.8 15961.4 41539.1 23500.1 16898.4 41746.3 19015.6 
30106.5 28006 44465.2 4529.11 28629.2 24825.4 4722.47 30085.9 21078.1 
29229.8 24341.1 45303.3 28757.8 21062.5 43608.9 31471.4 28494.7 35123.9 
30605.8 25703.1 32679.7 15715 41536.8 23248.5 11442.1 40656.2 23656.2 
29623.7 36860.1 30135.1 28872.3 35500 25718.8 5290.9 24080 24847.9 
6280.69 20546.9 26492.2 27318.2 39367.2 26234.4 30865.5 26540.6 33413 
30118 27507.8 29843.8 30571.7 25347.8 38978.5 29906.6 22609.4 36804.7 
23652 41243.8 23147.8 25939.4 37046.9 20562.5 29338.1 36343.3 28456.9 
29906.6 31632.8 27265.6 23705.5 41193.4 22420.9 22381.6 39882.8 18242.2 
28777 22893 46388.5 27984.4 20804.7 48670.2 16385.7 41573.9 19829.4 
15043.2 40914.1 16179.7 22936.4 40917.4 20852 20765.6 41749.4 19273.4 
28811.1 35763.8 26097.1 27536.8 35757.8 23140.6 5032.15 23105.3 29566 
6252.84 18226.6 30875 22499.1 39780.7 18427.6 22167.1 38335.9 15921.9 
6531.38 23870.9 21836 9164.06 22214.4 18500 9143.02 39549.9 28065.8 
6070.31 37097.4 27007.8 6495.91 23890.2 21305.5 6310.59 26476.6 18757.8 
25406.9 37187.9 20966.4 25998.2 33953.1 19789.1 6282.85 26247.5 19301.3 
5754.75 29828.1 17726.6 6308.84 21156.3 25903.8 8390.62 18086.3 25460.9 
29887.4 23274.5 37883.8 27726.6 18949.5 37835.9 15641.1 41536.2 23173 
13031.2 40671.7 20562.5 29066.3 21631 37865.6 27984.4 19966.3 34484.4 
6363.6 18494.5 31036.8 7359.38 15495.8 32164.1 28636.6 21406.3 43907.8 
26982 17195.3 42476.6 7099.91 19989.7 25735.5 8906.25 19515.6 22454.8 
30683.7 25954.4 32899.7 27984.4 22714.6 29070.3 4267.79 30975.3 26449.6 
4727.62 33953.1 24171.9 8341.12 23102.1 19198.4 9867.37 24414.1 15148.4 
8796.84 39623.5 27686.1 8340.09 39367.2 24687.5 6302.24 26407.8 18920.9 
7617.19 26849.9 15921.9 15090.8 40789.7 16333.8 14062.5 39904.5 13601.6 
6039.07 29222.3 17790.8 6767.44 32406.2 15148.4 22413.9 38451.9 16891.1 
22910.6 34726.6 15148.4 6257.59 30177.5 16998.1 7319.16 29570.3 14117.2 
6286.05 18306.9 30923.5 8132.81 16031 29328.1 25693.9 34465.6 19818.2 
24964.9 31375 17726.6 27835.6 19355.7 37913 25921.9 16679.7 38328.9 
7329.47 15901.8 32236.5 8390.62 13518.9 33710.9 28568.8 23711.9 29635 
26953.1 23590.1 25718.8 6842.2 32283.5 15307.2 7617.19 34515.2 13601.6 
15686.5 41150.4 17941.7 12257.8 39652.8 17468.8 27987.7 20136.1 35151.7 
25921.9 17968.8 32730.2 12680.9 40820.1 23152.6 9608.53 39625 21078.1 
27340.5 18290 43374.6 25406.2 14487.2 45312.5 4884.27 33668.1 24178.9 
5812.5 36338.4 21593.8 25003.5 32456.7 18097.7 23418 31375 15148.4 
7351.64 29692.4 14279.9 8648.44 29312.5 11406 7732.69 14996.4 32796.8 
6843.75 14499.6 36031.2 10034.1 39594 21814.1 7617.19 38148.2 21335.9 
25956.8 16984.2 38418.7 23859.4 14709 39125 7880.47 16591.9 29434 
9892.13 15648.4 27007.8 26335.3 18590 32930.7 24890.6 18226.6 29492.1 
7678.96 34122.7 13809.5 9552.85 36015.6 11796.9 8413 13785.8 33643.6 
10195.3 11731.8 35515.6 27117.8 23981.2 25955.5 25921.9 24414.1 22832.3 
25639.8 15184.3 44644.9 23343.8 12131.9 44281.2 23893.6 31699.5 16033.2 
23343.8 28796.9 15080.4 28000.5 22839.9 29204.9 26304.5 20546.9 28296.9 
26150 16116 44263.8 25996.1 15648.4 47375 24804.2 18150.7 29766.1 
23343.8 17643.9 27523.4 26472 24215 24268.9 27000.6 26992.2 22625 
7335.35 14365 35220 8132.81 12296.9 38322.7 23508.7 29667.7 15366.2 
21826.8 29054.7 12054.7 9115.7 39044.6 21632.4 8390.62 38335.9 18660.9 
8405.89 38283.9 19332.4 7101.56 36597.2 17726.6 23393.2 29058.1 15166.2 
21854.6 26218.8 13859.4 26705.2 21313.4 28289.8 24926.7 20289.1 25976.6 
23428.8 12716.8 44181 21023.4 10732.5 43507.8 7893.56 12917.4 37391.9 
6267.28 12812.5 40929.7 24249.2 17958.1 28913.9 21796.9 15586.6 29070.3 
8102.08 12347.1 38280.2 8648.44 10750 40878.1 26058.1 24552.3 23102.8 
24890.6 26127 19531.2 23371.9 17727.2 27656.4 21281.2 17453.1 24996.9 
8395.16 38320.3 18862.3 9164.06 37562.5 15612.5 21926.1 28817.7 12536.9 
20259.3 27507.8 9992.19 26715.1 25492.5 23512.7 28500 28015.2 24945.3 
22316.2 27070.6 14251.4 21796.9 23805.6 16179.7 21908.5 17535.3 25794.7 
22312.5 18981.4 23656.2 22076.3 15898.5 29381.2 19992.2 13990.2 30359.4 
21880.7 15680.1 29163.6 19992.2 15373.1 27007.8 21469.4 17477.8 25236.2 
18586.6 16679.7 23656.2 28069.1 27732.2 24522.4 28864 30859.4 24687.5 
20031.8 14368 30256.9 17156.2 12613.5 31390.6 25962.7 24455.5 22913.5 
23859.4 21722.5 22109.4 19912.7 17046.8 24383 19218.8 18466.8 21078.1 
26946 26816.5 22934.5 27487.3 30343.8 22109.4 24826.9 22979.7 22479.2 
23343.8 22842.4 19789.1 20645.1 14827.1 29994.2 17156.2 13767.4 28554.7 
18018.9 13139.8 31050.5 17929.7 11779.2 34742.2 23646.3 22677.4 20710.7 
21796.9 21320.3 19646.8 20141.2 15385 27445.5 17414.1 14865.7 25976.6 
21823.9 21465.8 19738.3 19779.7 20289.1 18757.8 21654.7 24411.4 15659 
19779.7 21835.9 16179.7 15885.2 47407 53694.5 17263.9 43545.4 45402.6 
21066.6 43027.5 47566.9 24547.2 40231.8 45830.1 25921.9 38784.5 43250 
25698.2 38934.1 43364 26301.4 38078.1 41445.3 19799.3 40398.4 36804.7 
7518.08 36870.5 39990.7 5812.5 34984.4 39699.4 6144.56 35402.1 36122.6 
5755.78 35500 34742.2 25783.5 38533.3 38495.1 27806 37046.9 39382.8 
29374.6 34045.1 43716.8 30562.5 33268.4 42218.8 16561.2 41450.1 35157.2 
12465.1 40914.1 33453.1 5154.46 32658.5 34340 4723.5 33179.7 32164.1 
30314.3 33465.7 42298.4 31080.2 33179.7 39898.4 25769.6 39318.2 34646.2 
24375 40140.6 33484.1 18092.2 41103.1 33624.5 18960.9 41230.7 31390.6 
27453.7 37623.6 36964.9 29273.4 36597.2 36031.2 15237.7 41273.7 36523.2 
4946.97 30076.2 39764.9 4265.62 28029.6 39382.8 6122.39 35132.7 39589.4 
4736.91 32406.2 38351.6 27464.2 37622.6 36852.7 27984.4 38078.1 35081.5 
15670.3 41352.9 29813.3 17414.1 41230.7 28812.5 18747.8 41183.4 31459.2 
19218.8 41230.7 29585.9 8535.83 38596.2 35136.3 8906.25 39485.8 33195.3 
13553 41131.2 36909.2 11742.2 40685.1 38093.8 13978.2 41024.5 30376 
32109.4 32217.5 36546.9 31649.1 33053.7 36592.5 32109.4 32153.6 34742.2 
31860.8 32639.7 35741.3 31647.4 33953.1 33710.9 26256 39443.7 33527.9 
27984.4 39133.1 31906.2 19566.4 41531.7 27392 17414.1 41736 26750 
6024.42 24228.7 46909 6267.28 23382.8 48921.9 4429.59 29541.6 38053.6 
4207.87 26992.2 37320.3 4494.36 28725.5 31068.5 4207.87 26218.8 31132.8 
31745.6 33348.9 34644.9 31646.3 32148.4 32421.9 31676.1 32508.6 33088.8 
31132.8 33695.3 31132.8 13277.6 41085.8 28784.8 11484.4 40715 27523.4 
4278.83 27374.9 37194.1 4207.87 25445.3 36031.2 4422.27 29535.9 26450 
4207.87 27765.6 26492.2 31655.3 32256.5 32621.9 31593.8 30085.9 32569.3 
29583.4 37204.3 29739.7 28500 38976.3 30101.6 23924.1 41624.9 25313.4 
25406.2 41019.2 25203.1 31545 30491.5 32454.6 31126.6 28796.9 31648.4 
28583.2 38660.9 29967.8 27004.7 40140.6 29843.8 27783.2 39003.5 27243.3 
26304.5 40656.2 27007.8 10223.7 40012.8 29024.1 8648.44 39654.9 29585.9 
11529.8 40628.6 23556.4 9679.69 40142.7 23914.1 24661.5 39056.9 21018.6 
24890.6 38642.2 20046.9 7359.38 38460.7 30359.4 16122.6 41552.3 22105.2 
18703.1 42260.9 21078.1 26146.4 39630.9 32985.9 25664.1 40213.8 31132.8 
4576.55 27843.3 23761.5 5097.84 27250 21593.8 5419.18 34984.8 30498.6 
4708.03 33179.7 29070.3 28242.2 20670.6 45828.1 4857.77 33631 29203.3 
4405.87 32921.9 27265.6 16899.4 41757.2 19192.2 18187.5 42255.7 18242.2 
29725.9 26658 45134.9 29078.5 25445.3 47632.8 6208.29 23862.3 23023.3 
7359.38 21812.2 21851.6 5720.51 20629.4 29666.7 6005.34 19515.6 29070.3 
29438.8 34399.1 27404.3 29210.5 33437.5 25718.8 6051.24 27717.8 18804.8 
5238.09 29312.5 19531.2 5900.67 22627.6 25086.7 7101.56 21015.1 23914.1 
14277.3 41207.8 23452.5 13031.2 40978 24945.3 29698.2 31935.8 27082.3 
29563.2 30343.8 26492.2 5840.04 29646.4 17745.8 5243.25 31632.8 18500 
6862.62 20339.7 25786 7359.38 18121.4 27265.6 15057.5 40876.7 16225.9 
16102.3 41429.7 15148.4 29853.5 22895.4 36943.9 29585.9 22609.4 34484.4 
7378.56 22258.3 21865.6 8743.31 21062.5 20562.5 27936.7 19723.5 43619.9 
27328.5 17968.8 45828.1 8984.32 22535.7 18564 9937.5 22289.7 17210.9 
22111.5 41233.5 20252.1 20765.6 42260.9 21078.1 30149.6 26986.9 30483.8 
29590 26476.6 29070.3 7280.69 23706.9 20445.8 7359.38 24621.3 18500 
6863.86 37727.2 27004.7 5812.5 36866.4 24945.3 6349.78 31130.3 16499.2 
[...]
CELL_DATA 1299
SCALARS radius float
LOOKUP_TABLE default
1.16158 1.02038 0.948787 0.946097 0.0484185 0.587904 0.786949 0.0610006 0.634212 
0.0678901 0.835885 0.0704653 0.385155 0.750525 0.0835088 0.583391 0.043223 0.369832 
0.332372 0.0484941 0.775101 0.0665324 0.322426 0.0687347 0.490999 0.601728 0.051028 
0.306834 0.134846 0.728261 0.0811104 0.559503 0.0745842 0.266489 0.0935137 0.108399 
0.771999 0.0785226 0.724548 0.0798124 0.489694 0.0697078 0.297426 0.0619749 0.368399 
0.0937604 0.691772 0.0703648 0.724688 0.0662423 0.540791 0.094242 0.599353 0.0717893 
0.208835 0.106898 0.495776 0.045474 0.423019 0.586 0.0718716 0.343829 0.0753845 
0.264951 0.109019 0.688565 0.0721822 0.499973 0.0800724 0.365389 0.0784773 0.582548 
0.0701938 0.722606 0.0904286 0.489726 0.0741451 0.428587 0.24133 0.164444 0.416334 
0.062989 0.53951 0.0721079 0.404678 0.0547189 0.417678 0.0969363 0.315528 0.103717 
0.108578 0.537512 0.10536 0.598845 0.0737785 0.583268 0.0795876 0.371971 0.0859427 
0.362431 0.0430968 0.232438 0.119702 0.365816 0.0662021 0.361486 0.123789 0.257997 
0.121004 0.498167 0.0591268 0.343615 0.116398 0.529468 0.0978736 0.323577 0.118632 
0.498484 0.0708943 0.522589 0.0921692 0.494187 0.0800324 0.301264 0.117882 0.598157 
0.0627698 0.215947 0.0878511 0.58795 0.0678163 0.4942 0.0666001 0.383295 0.116636 
0.272011 0.109458 0.526867 0.0710197 0.307455 0.0866568 0.27614 0.126392 0.205383 
0.137459 0.283463 0.105725 0.23349 0.167169 0.457418 0.0662171 0.319148 0.0959264 
0.433172 0.0702048 0.243125 0.076834 0.520056 0.11312 0.299358 0.0676401 0.470898 
0.0881681 0.521906 0.0706134 0.357981 0.118161 0.343566 0.142742 0.556264 0.0676797 
0.379145 0.109377 0.352317 0.092328 0.286934 0.118283 0.519089 0.0612983 0.297355 
0.131685 0.451184 0.0931711 0.36007 0.135807 0.262707 0.147633 0.230044 0.164679 
0.545015 0.0627875 0.318278 0.155211 0.286222 0.106359 0.507807 0.0643418 0.322437 
0.126024 0.517292 0.0666994 0.191867 0.123035 0.343344 0.148885 0.535029 0.0714491 
0.50295 0.0747706 0.391582 0.0723252 0.498799 0.09069 0.356674 0.0895602 0.349986 
0.116373 0.419385 0.101602 0.188568 0.169184 0.301312 0.186073 0.372144 0.183706 
0.532843 0.0746046 0.341509 0.121437 0.427172 0.078059 0.424722 0.0918237 0.293242 
0.108031 0.364163 0.107306 0.366618 0.0780434 0.398838 0.1418 0.415017 0.0662891 
0.417804 0.0995238 0.260474 0.112947 0.355911 0.147874 0.286415 0.174002 0.356964 
0.11501 0.350108 0.125675 0.345357 0.0949695 0.287675 0.128152 0.349382 0.10829 
0.380893 0.163692 0.354367 0.137885 0.328333 0.098458 0.258418 0.170089 0.309104 
0.134854 0.346824 0.166726 1.16278 0.591901 0.946387 0.838884 0.071195 0.169737 
0.0888179 0.13066 0.75376 0.072834 0.730141 0.0692367 0.318518 0.0807706 0.774975 
0.0567144 0.568861 0.0752714 0.727895 0.065978 0.166017 0.119191 0.262675 0.104702 
0.202671 0.0595876 0.192427 0.109908 0.243673 0.257753 0.107462 0.176416 0.121161 
0.148865 0.120691 0.5002 0.101341 0.193328 0.11301 0.242905 0.0815049 0.167128 
0.120304 0.368201 0.0741357 0.327242 0.0983135 0.308711 0.10185 0.240634 0.129539 
0.207814 0.115061 0.243878 0.15655 0.202491 0.115217 0.690703 0.112452 0.305351 
0.0750777 0.301526 0.0921348 0.210074 0.0866621 0.191556 0.176511 0.270167 0.118995 
0.256384 0.0979448 0.277629 0.0931984 0.123999 0.115394 0.25422 0.0813999 0.187029 
0.14527 0.2355 0.119689 0.338991 0.079347 0.181504 0.140812 0.531184 0.0807349 
0.0642478 0.371278 0.130561 0.205112 0.100819 0.195998 0.161921 0.206202 0.123416 
0.0991412 0.195498 0.177496 0.203281 0.113038 0.427707 0.107536 0.548442 0.0903453 
0.497476 0.106436 0.319095 0.075717 0.460909 0.130215 0.314264 0.126012 0.383045 
0.119332 0.23913 0.147435 0.231534 0.126872 0.29711 0.112444 0.15395 0.149756 
0.213227 0.088044 0.247679 0.0745702 0.363746 0.136708 0.197649 0.108525 0.188194 
0.108212 0.208354 0.0866834 0.285055 0.128183 0.29324 0.0752827 0.374044 0.125594 
0.208628 0.163976 0.190031 0.123473 0.243605 0.13831 0.209116 0.0759829 0.202649 
0.178384 0.364739 0.122535 0.198956 0.0994295 0.271282 0.122404 0.206711 0.112314 
0.232529 0.0789107 0.253353 0.150091 0.241062 0.132922 0.257873 0.178548 0.238891 
0.137675 0.59078 0.0908237 0.237138 0.179357 0.400423 0.13141 0.168315 0.151847 
0.186047 0.117722 0.230693 0.148957 0.208233 0.230577 0.215266 0.211962 0.192869 
0.283923 0.100885 0.215592 0.083314 0.275924 0.0980259 0.171103 0.161348 0.271348 
0.156753 0.380375 0.151771 0.302363 0.161279 0.293604 0.214559 0.15258 0.146344 
0.188397 0.179713 0.222176 0.154745 0.20479 0.112552 0.213928 0.164351 0.323397 
0.17537 0.202404 0.190066 0.368627 0.104775 0.295072 0.183705 0.309009 0.113107 
0.203061 0.193301 0.270404 0.0959072 0.288198 0.0789405 0.168258 0.164756 0.304203 
0.170051 0.285345 0.168868 0.200687 0.187212 0.331463 0.128866 0.27259 0.143012 
0.327213 0.138625 0.267651 0.189782 0.338735 0.177505 0.286179 0.232025 0.795076 
0.107964 0.148399 0.136931 0.836562 0.049613 0.157225 0.0735198 0.155679 0.0935435 
0.144222 0.0893286 0.174789 0.0914313 0.18175 0.121015 0.312175 0.115353 0.0870488 
0.121016 0.177183 0.132615 0.171847 0.113018 0.161218 0.144903 0.206219 0.0986704 
0.257897 0.138345 0.236374 0.111717 0.169898 0.151972 0.430408 0.100248 0.205131 
0.0953594 0.206035 0.114526 0.495213 0.101582 0.183509 0.17449 0.19515 0.111686 
0.22014 0.162624 0.193492 0.0820658 0.54321 0.0714389 0.427139 0.0901367 0.128711 
0.120913 0.22352 0.105924 0.499508 0.10003 0.183406 0.114162 0.12691 0.119472 
0.135514 0.130018 0.586247 0.107215 0.194557 0.178106 0.147167 0.144601 0.123373 
0.116732 0.493784 0.079982 0.599607 0.0935988 0.30736 0.119195 0.229448 0.133149 
0.249279 0.150524 0.219401 0.0947915 0.144513 0.121066 0.254765 0.110293 0.16486 
0.11254 0.201524 0.0952464 0.498019 0.11548 0.200532 0.0948773 0.525837 0.11538 
0.199451 0.0932684 0.214292 0.105322 0.178594 0.164067 0.192143 0.136609 0.558322 
0.103892 0.167385 0.118683 0.557121 0.0927009 0.240966 0.138677 0.191931 0.149955 
0.307947 0.0824739 0.183057 0.137546 0.190038 0.172033 0.182727 0.167262 0.211038 
0.181892 0.210241 0.0872938 0.18306 0.165052 0.313901 0.122346 0.273509 0.0732837 
0.199939 0.121811 0.307046 0.138474 0.215272 0.112184 0.269699 0.13516 0.546233 
0.102844 0.473752 0.124073 0.28662 0.14595 0.511534 0.0958612 0.237183 0.115457 
0.25621 0.117731 0.220586 0.209495 0.206377 0.136319 0.254025 0.153292 0.188219 
0.13203 0.536245 0.101552 0.203633 0.180806 0.312755 0.174161 0.259636 0.173729 
0.283405 0.140562 0.204901 0.160529 0.178883 0.271376 0.123486 0.225475 0.142104 
0.202022 0.175176 0.421097 0.120238 0.233137 0.178156 0.247936 0.17322 0.268479 
0.181268 0.293777 0.144448 0.266427 0.166934 0.245317 0.186932 0.340425 0.138987 
0.23963 0.176502 0.251447 0.224043 0.216109 0.145423 0.334199 0.151886 0.305202 
0.123025 0.257604 0.221688 0.213521 0.135147 0.209985 0.189366 0.221964 0.213268 
0.193313 0.184114 0.353862 0.146107 0.189391 0.184705 0.213807 0.175308 0.281619 
0.169139 0.336073 0.133148 0.259607 0.191778 0.251016 0.165404 0.241485 0.22546 
0.291766 0.192223 0.241185 0.21101 0.117455 0.635379 0.634807 0.0895936 0.175288 
0.108555 0.135049 0.124637 0.214 0.101772 0.110997 0.101788 0.152415 0.120929 
0.1032 0.15001 0.136747 0.14576 0.111963 0.132891 0.128771 0.113932 0.10904 
0.215173 0.109993 0.264528 0.111502 0.147316 0.120587 0.724361 0.075186 0.134008 
0.110949 0.15764 0.138841 0.155624 0.125791 0.367267 0.0910981 0.435127 0.0783058 
0.12479 0.114935 0.164542 0.0955676 0.172177 0.110113 0.723124 0.0933081 0.174243 
0.11672 0.691401 0.0999545 0.689708 0.0925997 0.177818 0.100548 0.173415 0.125655 
0.189617 0.131187 0.167206 0.146612 0.341489 0.0953796 0.540211 0.0849288 0.130707 
0.11449 0.162614 0.145472 0.262242 0.0965875 0.141815 0.117438 0.600381 0.0942194 
0.418985 0.111526 0.178973 0.138679 0.532297 0.0981218 0.171858 0.128583 0.17353 
0.138003 0.143324 0.134488 0.143418 0.134816 0.191711 0.140958 0.388001 0.0672687 
0.182103 0.14236 0.26658 0.130527 0.238382 0.111595 0.176135 0.109654 0.198305 
0.187862 0.290689 0.111886 0.495847 0.106581 0.125588 0.123873 0.255712 0.144964 
0.22084 0.102468 0.175208 0.141433 0.178836 0.146082 0.266729 0.121718 0.524348 
0.0601085 0.228302 0.12722 0.206902 0.132827 0.148232 0.118651 0.133438 0.121981 
0.179003 0.17214 0.204963 0.128407 0.18772 0.113548 0.224564 0.162996 0.224485 
0.119017 0.281977 0.125141 0.293579 0.118867 0.186211 0.164799 0.19124 0.178451 
0.20194 0.144379 0.1706 0.131795 0.189301 0.176575 0.303023 0.125219 0.184484 
0.169467 0.152853 0.146087 0.170272 0.143794 0.203231 0.107789 0.224509 0.177014 
0.138313 0.131884 0.202535 0.107574 0.185261 0.15949 0.163481 0.153008 0.183013 
0.11157 0.165076 0.145959 0.191085 0.178891 0.190861 0.154001 0.237498 0.150185 
0.194111 0.175775 0.295415 0.125439 0.242844 0.111846 0.224993 0.183631 0.402431 
0.120049 0.21702 0.186775 0.260383 0.142448 0.236257 0.1881 0.318699 0.14201 
0.211652 0.198281 0.204853 0.189508 0.258433 0.182889 0.29043 0.121249 0.259592 
0.193716 0.223357 0.214593 0.206798 0.150919 0.26364 0.170888 0.244699 0.111468 
0.210924 0.199989 0.20644 0.19951 0.243487 0.212678 0.248559 0.202494 0.262802 
0.188848 0.224343 0.185376 0.26798 0.229842 0.158248 0.0857682 1.02054 0.0780527 
0.948968 0.0787804 0.592331 0.0767563 0.0884359 0.0919313 0.0487025 0.588607 0.0900164 
0.584601 0.0700986 0.151003 0.0977369 0.754909 0.0707977 0.107374 0.0963157 0.135893 
0.246179 0.0837449 0.320205 0.0802181 0.372651 0.0853026 0.602194 0.0797195 0.371155 
0.0816735 0.31531 0.0974645 0.160138 0.107662 0.267939 0.0898463 0.560154 0.0849085 
0.138694 0.125043 0.141924 0.490515 0.0839448 0.143045 0.131373 0.156406 0.135694 
0.147823 0.142694 0.600007 0.0890027 0.14713 0.112581 0.203208 0.144853 0.169605 
0.150892 0.267707 0.102016 0.600466 0.0791856 0.151534 0.136063 0.118454 0.196684 
0.112906 0.158405 0.145839 0.174402 0.146294 0.496973 0.0960029 0.168083 0.146722 
0.214365 0.177048 0.689152 0.0941527 0.161324 0.130345 0.165826 0.158836 0.419177 
0.0923326 0.600948 0.0849978 0.158466 0.145468 0.583468 0.0978811 0.215292 0.106599 
0.584143 0.0963443 0.176715 0.159144 0.186873 0.127629 0.549897 0.109599 0.53855 
0.0965895 0.166024 0.159228 0.213846 0.153749 0.146647 0.142415 0.39063 0.106127 
0.183162 0.174275 0.195772 0.17261 0.174918 0.162954 0.138851 0.104493 0.128053 
0.121539 0.158136 0.136246 0.182548 0.124802 0.245834 0.121556 0.160647 0.146921 
0.526417 0.092338 0.243439 0.126299 0.160563 0.148659 0.167378 0.148871 0.525468 
0.0974737 0.184289 0.14239 0.298417 0.108342 0.199487 0.167908 0.495941 0.108849 
0.203465 0.182511 0.163807 0.122549 0.167013 0.136464 0.167958 0.154825 0.127362 
0.116024 0.158101 0.14868 0.186166 0.132626 0.187087 0.167991 0.167894 0.148407 
0.241954 0.125791 0.126092 0.121364 0.160302 0.155025 0.284275 0.125268 0.210281 
0.144534 0.188777 0.153523 0.160824 0.123646 0.234083 0.148935 0.148097 0.140217 
0.218706 0.168325 0.537691 0.107723 0.504363 0.102458 0.259339 0.231782 0.138833 
0.124434 0.123189 0.117493 0.307771 0.121583 0.2453 0.223458 0.231796 0.208521 
0.142683 0.126492 0.16262 0.142628 0.225511 0.179813 0.174909 0.168367 0.278369 
0.226975 0.369232 0.126928 0.222905 0.177336 0.424047 0.109591 0.376456 0.148275 
0.227076 0.176615 0.21704 0.202972 0.208347 0.181395 0.193433 0.176035 0.297754 
0.13501 0.168312 0.15113 0.203024 0.170207 0.231074 0.176996 0.17688 0.152535 
0.333565 0.119792 0.214047 0.195276 0.180305 0.166211 0.24785 0.204006 0.305738 
0.172596 0.275827 0.204034 0.169744 0.0975363 0.796012 0.0459739 0.121133 0.0805481 
0.14936 0.11962 0.118884 0.105 0.127914 0.0941472 0.793971 0.0556914 0.236104 
0.0501525 0.186311 0.10378 0.174892 0.111738 0.235067 0.0893352 0.209514 0.0731238 
0.203953 0.0666804 0.155942 0.0749134 0.12926 0.120934 0.154193 0.0989535 0.158134 
0.0772975 0.184927 0.0911918 0.181991 0.118451 0.148058 0.131553 0.156579 0.150029 
0.174014 0.153366 0.114664 0.104851 0.754026 0.0768404 0.165455 0.108044 0.150461 
0.10554 0.112386 0.109066 
