# vtk DataFile Version 4.1
vtk output
ASCII
DATASET POLYDATA
POINTS 1300 float
16125 47875 54078.1 15403.1 46110.7 52273.4 18329.9 44134.8 47664.9 
18049.8 42602.1 43819.4 12341 42324.3 44002.6 9412.18 38751.1 43695.8 
7935.84 35381.5 44395.8 7018.03 32295.2 44834.4 28240.4 36592.9 42570.2 
22828.1 41230.7 29585.9 5948.21 28583.1 43725.3 29066.8 36267 38805.5 
31851.6 32664.1 36077.7 4950.79 31505.4 32372.2 30318.6 32353.8 42288.4 
22718 41169.1 29801.5 23343.8 41746.3 25203.1 31016.1 33744.9 36896 
4722.47 24671.9 27007.8 31601 32988.3 36323.2 23301.7 41401.7 25939.4 
24250.2 40398.4 21593.8 4723.71 26359.9 27933.4 5039.06 26334.2 23140.6 
4893.97 26346 25345.3 4208.91 30601.6 22882.8 22795.1 41212.2 29650.6 
26301.4 40656.2 27523.4 29874.4 35859.4 29894.8 29083.7 35500 26492.2 
23730.1 40741.5 22478.3 22364.1 40914.1 19531.2 24094.2 40501.4 21859.1 
25423.8 37820.3 20304.7 4995.54 26337.8 23802 7359.38 23125 20357.3 
4723.09 25448.4 27433.6 5242.22 20546.9 30617.2 24918.5 38839.1 20895.4 
23876.9 38078.1 17984.4 29321.7 24107.8 45478 28757.8 20997.5 42476.6 
15769.1 41571.7 23111.6 4722.68 24904.8 27135.5 6801.47 20804.7 24687.5 
17108.7 41981.1 20252.4 29637.2 35751.6 28874 29606.5 31375 27007.8 
4469.19 28984.5 23818.5 5226.75 29312.5 19789.1 29249.7 35575.5 27206.7 
29015.6 20725.3 37835.9 25272.2 38126 20481.9 27468.8 35571.2 22625 
29785.2 23340.2 38356.8 29062.3 22677.1 44097.4 27468.8 18147.2 45570.3 
5463.83 20784.8 30069.7 6478.69 17195.3 31390.6 28683.9 21186.2 42899.5 
27468.8 18146.1 41445.3 6177.77 22034.7 25421.9 7359.38 18073.9 27523.4 
28918.7 24671.9 29070.3 7074.95 23956.4 20774.7 9886.97 22867.2 16695.3 
25378.3 37912 20357.8 26179.7 33179.7 19502.4 6451.15 24670.8 21682.9 
7101.56 26171.3 17726.6 24011.3 38007.6 18409.4 22828.1 36106.4 15406.2 
6817.66 26196 18614.3 6328.12 29241.3 16437.5 6388.14 28934.4 17052.5 
5812.5 32921.9 16632.4 7274.09 23374.4 20482.5 10453.1 20031.2 19874.7 
29629.8 22648.1 36007.1 27210.9 18971.1 34226.6 15449.8 41041.5 17142.6 
14062.5 39981.8 13859.4 28941.9 21081.5 37976.6 27004.7 18226.6 37835.9 
28500 21683.3 32164.1 6581.4 17527.7 31551.6 7617.19 14824.5 32937.5 
25787 34240.9 19412.6 24920.5 31632.8 17210.9 7086.82 26264.7 17853.3 
8192.62 26734.4 14890.6 6346.17 29149.3 16622 7309.88 30085.9 13859.4 
28777.1 24744.8 29325.9 26953.1 23125 26183.8 7860.87 26593.5 15779.5 
10453.1 24495.5 13859.4 27619.6 18912.1 45028.2 25473.3 14875 44539.1 
6971.42 30082.9 14754.1 7301.63 32406.2 13343.8 13874.3 40924 21432 
10195.3 39698.2 21335.9 26999.4 18490.5 37953.1 24772 15906.2 38093.8 
23147.6 36173.9 16025.1 22828.1 32921.9 14034.7 6974.93 16500.5 32078.2 
9867.37 14101.6 30101.6 27479.7 19820.3 34002.3 25406.2 17801.7 31390.6 
11970.1 39367.2 17210.9 23324.4 41587.8 25541.8 20765.6 42260.9 24171.9 
7645.03 15076.4 32853.3 9421.88 12434 34484.4 10578.5 39725.8 21511 
7359.38 38395.8 21851.6 7327.92 30084.2 13918.1 8865 30085.9 10507.8 
7345.56 18839.9 26883.8 9539.44 15906.2 27007.8 7453.12 32248.2 13580.2 
9020.72 35757.8 12312.5 24762.1 31962.1 17265.8 23364.4 29828.1 14890.6 
28442.5 21727.6 32459.2 27210.9 21012 29843.8 26028.3 18407.3 32174.1 
24181.1 15906.2 33195.3 7629.97 14940.4 32898.8 6652.97 14359.4 37062.5 
25481.1 15122.1 44656.4 23661.4 12296.9 44539.1 25416.1 16594.2 38369.4 
27667.7 24146.4 27072.8 26455 25445.3 22882.8 25592.9 17983.4 31625.7 
24117.2 18094.6 28296.9 8325.14 38794.7 21749.4 6585.94 36581.8 19273.4 
23594.5 30439.2 15207.1 22312.5 30077.7 12570.3 12939.2 39867.4 17150.7 
11742.2 38445.2 14890.6 8763.94 13267.1 34382.7 9164.06 11778.2 37835.9 
9014.53 35000.6 12546.5 12000 37118 11539.1 27244.1 21110.8 30045.7 
25921.9 20546.9 27576 23433.4 30011.5 14985.6 21995.9 26734.4 13859.4 
23577.2 12578.1 44648.8 21281.2 10072.5 44796.9 9044.03 12224.8 36800 
7101.56 12760.9 39640.6 26957.9 25459.9 24204.9 27015 28796.9 21851.6 
24190.8 17857.7 29015.2 21796.9 16616.8 27007.8 11999.3 39420 17144.1 
8648.44 37922.4 16953.1 9238.62 37675.6 16856.6 7101.56 36015.6 16555.1 
22296.5 29979.1 12692.2 20790.4 29312.5 9992.19 26501.1 25597.1 23087.9 
24952.5 26476.6 19531.2 9112.39 11818.1 37787.5 9164.06 10691.2 40671.9 
25145.4 26058.6 20195.7 23343.8 25187.5 17418.2 22515 16989 27610 
22054.7 18432.8 24429.7 23151.8 17319.1 28144 20765.6 14815.2 29585.9 
27284.4 24855.7 25524.1 28500 28539.1 24822.6 21242.2 29512.5 10802.2 
19734.4 26446.7 9992.19 23361.8 25105.3 17815.9 21349.3 23898.4 15664.1 
24971.5 26480 19545.3 24385.3 28023.4 17210.9 21931.8 16845.2 27053.1 
19734.4 16679.7 24793.7 22351.9 18418.4 24869.9 22589.9 20031.2 22367.2 
20879.5 15176.6 29557.6 18445.3 13244.6 31132.8 20183.3 16852 25028 
18703.1 17591.3 22109.4 27140.7 27881.6 22891.8 28055.5 30601.6 23398.4 
18755.6 13669.7 30599.2 15967.2 12554.7 30359.4 26468.9 25490.9 22944.3 
24632.8 22747.6 22109.4 24885.1 23432.8 22046.1 22894.1 22351.6 20046.9 
19087.2 17625 22536.5 18591.8 19257.8 19531.2 18538.4 13372.2 30972.7 
17671.9 12039.1 34084.2 18070.5 12652.2 32653 15093.8 11711.1 33195.3 
21561.2 15819.4 29133.5 17671.9 14295.4 27523.4 17863.2 12217.6 33892 
18042.1 11781.2 36289.1 23133.7 22435 20442.3 20765.6 20862.4 19015.6 
21195.5 21315 19112.1 19269.3 21062.5 16953.1 7617.19 30085.9 47942.2 
28813.3 36692.5 37435.1 28551.6 38851.6 30617.2 23411.7 41306.8 26879.1 
25213.4 41171.9 25203.1 4842.92 26350.2 26121.7 5238.09 24414.1 24429.7 
30817 27669.2 33629 30828 28108.3 31742.3 5710.92 23083.6 25702.3 
6480.75 22351.6 23140.6 28576.5 36624.5 26347.4 27984.4 39004.2 27523.4 
28184.4 21578.1 47375 6469.82 22585.9 23394.5 7101.56 22560.9 21851.6 
22767.3 40525.4 19863.7 22120.7 40140.6 17726.6 29700.3 25902.6 44971.5 
29078.5 25445.3 47632.8 28332.6 20883.5 45128 28046.2 20289.1 46085.9 
29592.3 33860.6 27373.5 29545.7 33437.5 26234.4 4979.77 29476.6 20840.9 
4923.56 31117.2 19531.2 22355.2 40824.1 19628.6 20831.6 41687.5 19015.6 
6079.9 30352.7 17094.8 5296.88 31375 18164.8 29464.4 33479.5 26325.4 
28875.4 32921.9 24687.5 6777.03 20920.2 24885.8 7829.62 19257.8 24687.5 
16163.3 41450.8 17579.4 16102.3 41429.7 15148.4 6794.15 20839.3 24747 
8132.81 20495.3 22625 29601.1 32319.5 27146.8 30562.5 31111 28554.7 
22478.8 40734.5 19699.1 21281.2 42254.7 21078.1 7712.16 19490.1 24813.2 
9020.72 17710.9 25203.1 27789 37664.7 25212.4 26953.1 37820.3 23347.9 
6509.52 17295 31438.9 7303.69 16679.7 30101.6 7097.13 26199.3 17764.6 
8025.56 24671.9 17210.9 7519.84 38531.4 26628.5 7617.19 38645.3 24687.5 
6040.1 32094.8 16586.5 6769.5 33437.5 15148.4 12649.8 40454.6 21209 
11484.4 39882.8 19687 9750.84 23228.9 16902.3 10968.8 23183.8 15148.4 
6856.85 16808.6 31920.2 6300.28 16164.1 33968.8 27085.9 35659.1 22161.2 
27984.4 33695.3 22805.5 8176.44 26649 15017.2 8906.25 26476.6 13572.7 
23200.9 41467.6 24252.9 22574.4 42203.1 22882.8 8187.78 26708.8 14928.6 
7815.19 28281.2 14117.2 14694.5 41214.1 21964.9 27152.1 23600.3 26350 
26179.7 23382.8 24640.1 7727.43 38746.1 25294.7 7926.97 27809.5 14360.6 
8708.25 28281.2 12312.5 9132.3 14807 30382.6 10195.3 14514.1 28296.9 
24927.7 18062 30145.4 25148.4 18930.9 29070.3 26227 16341.8 45095 
25463 14359.4 46859.4 14329.8 40115.8 15615.6 13476.7 39367.2 15148.4 
8937.6 12620.9 35881.4 10968.8 11222.3 36289.1 9224.5 12683.9 34453.9 
11484.4 11722.5 33710.9 27012.8 23267.6 26233.7 26505.6 21835.9 27007.8 
23048.2 33987.9 14916.3 23601.6 32406.2 15355.7 8825.5 37848.4 16924.2 
8132.81 38119.4 18500 26107.8 20818.7 27728.7 25451.6 20804.7 26234.4 
22043.7 11284.1 44200.7 21074 10750 43507.8 27082.9 28302.6 22413.3 
26179.7 27720.3 20820.3 23349.2 25162.9 17537.5 23346.8 26476.6 16179.7 
22263.5 27583.1 13946.9 21134.8 26476.6 12312.5 25479.6 33557.2 18768.5 
24423.5 34210.9 16953.1 22004.2 26766.3 13883 21539.1 25325.7 13859.4 
9040.83 10609.5 40458.2 8906.25 9718.75 42154.8 21157.9 26512 12416 
20250 25654.7 11281.2 21484.2 25501.8 13829.7 20250 23805.6 13601.6 
10287.7 38338.5 16965.9 9679.69 37590.3 14890.6 20386 28287.6 10058.2 
19476.6 27765.6 8839.25 28363 28088.2 25169.7 29052.8 30085.9 25460.9 
22778 19602.7 23570.7 23601.6 20804.7 23090.1 23571.3 20708.8 23258 
24434.8 21835.9 23140.6 27459 29368.2 22722.1 27493.5 30859.4 21851.6 
17349.8 13290.3 30041.4 16125 13270.4 28812.5 22706.5 19765.5 23113.4 
20765.6 19000 21903.1 27483.2 30412 22112.7 26504.5 30859.4 20304.7 
27111.3 30582 21425.7 26983 32406.2 20820.3 19444.2 15196.3 27734.4 
18445.3 15336 25976.6 18886.2 19077.6 19963.7 19218.8 20013.7 18500 
20712.4 24331.4 13916.2 19762.2 22351.6 15148.4 28432 37065.7 36907.9 
26953.1 37631.6 37320.3 28045.2 38078.1 35000 27916.5 37868.3 35555 
26695.3 38675.2 34742.2 5296.88 34468.8 38151.5 6270.37 23640.6 48921.9 
4547.36 28462.4 24352.4 4207.87 30343.8 24687.5 15867.2 41716.4 20304.7 
5414.44 23630 26132.3 5612.44 22093.8 26750 4748.04 27249.4 24725.2 
4718.35 27507.8 23398.4 30994.2 27817.3 34170.5 30928.6 26218.8 33710.9 
5046.49 26391.8 23244.6 5225.72 26734.4 21851.6 29343.3 25461.5 46416.2 
29060 24156.2 47117.2 5646.05 22224.4 26696.7 5958.94 20804.7 27265.6 
23334.2 40516.9 21013.6 23859.4 39801.3 20046.9 29083 35460.3 26582.9 
28569.1 34984.4 24945.3 29637.5 22680.7 37358.3 29391 21578.1 36804.7 
21288.7 41428.4 19199.5 20765.6 41113.1 17726.6 28723.3 35127.1 25436.6 
28043.2 36273.4 24429.7 7771.36 20703.7 23046.5 8132.81 21320.3 21543.2 
23917.2 38057 18111.9 22889 38851.6 17468.8 28020.5 20382.5 46063.8 
27545.1 19773.4 47375 8360.92 22285.1 20113 8906.25 22041.2 19015.6 
23037.8 38673.2 17498 21969.1 39109.4 16437.5 27625.3 34854.5 22769.1 
28242.2 34468.8 23780 28797.4 21287.3 35460.5 23408.4 37156.8 16999.8 
22357.9 37562.5 15664.1 28920 32839.2 24864 28529.9 32148.4 23914.1 
9159.63 22782.4 18399 9937.5 22093.8 17777.1 25746.9 35521.6 19940.5 
26522.1 34210.9 20820.3 7970.19 25016.3 17171.5 8888.72 24156.2 16437.5 
20968.7 41609.7 19070.8 19734.4 42260.9 20046.9 29086.8 25703.1 28554.7 
14206.8 40054.1 14807.7 15609.4 40725.3 13601.6 27225.9 19096.2 34274.3 
26799.5 18226.6 35000 8024.43 20557.8 22751.4 9421.88 19343.4 22109.4 
[...]
CELL_DATA 1299
SCALARS radius float
LOOKUP_TABLE default
1.1632 1.00418 0.704282 0.818517 0.775226 0.390331 0.358051 0.857212 0.0464325 
0.325998 0.654162 0.0628944 0.735276 0.699681 0.588314 0.0737891 0.631389 0.0679048 
0.5693 0.582008 0.0723292 0.709764 0.0611524 0.571254 0.124786 0.159338 0.116066 
0.394169 0.0651015 0.574062 0.0679278 0.550766 0.0442578 0.541845 0.0800623 0.552014 
0.089824 0.55035 0.0674007 0.430848 0.0909653 0.469332 0.374742 0.0570526 0.399882 
0.386754 0.125515 0.227562 0.111799 0.323172 0.0772559 0.502696 0.108772 0.627199 
0.416316 0.0788916 0.48268 0.0663052 0.228052 0.132093 0.345736 0.0873666 0.0731961 
0.320815 0.125825 0.485775 0.0927147 0.53751 0.0518659 0.341022 0.0910798 0.493331 
0.0787602 0.409247 0.136051 0.251773 0.132117 0.604753 0.0709548 0.38954 0.140514 
0.286961 0.0639167 0.0797159 0.480405 0.0679348 0.47633 0.0697171 0.36873 0.0586665 
0.362117 0.0678541 0.542686 0.0579996 0.33687 0.101505 0.369873 0.0910373 0.36087 
0.102382 0.331483 0.075267 0.28086 0.109086 0.314115 0.100119 0.47335 0.134544 
0.581771 0.078787 0.0686729 0.163256 0.0998761 0.44269 0.0766882 0.305179 0.117968 
0.192421 0.189567 0.2231 0.177502 0.341626 0.13457 0.46811 0.0839976 0.271758 
0.0880813 0.576889 0.132305 0.264933 0.11541 0.324049 0.109136 0.263934 0.541217 
0.0589264 0.572151 0.0997638 0.294787 0.095421 0.461637 0.0661424 0.35422 0.149664 
0.408487 0.056505 0.310936 0.227828 0.21655 0.132327 0.379642 0.0650076 0.313286 
0.153886 0.363222 0.114508 0.512403 0.122854 0.565235 0.0647282 0.333352 0.102456 
0.298509 0.189756 0.328933 0.15218 0.475752 0.0520243 0.329904 0.133278 0.370558 
0.086986 0.461618 0.0671438 0.564197 0.0931476 0.530024 0.114993 0.303666 0.20699 
0.33827 0.194419 0.217965 0.143839 0.344203 0.0740693 0.383556 0.0876092 0.377099 
0.0915539 0.331696 0.0900281 0.282948 0.147947 0.371867 0.168062 0.371373 0.112618 
0.351762 0.0901425 0.320396 0.0988234 0.346572 0.122318 0.332223 0.188227 0.430785 
0.0862439 0.264416 0.191972 0.342442 0.119627 0.31573 0.167042 0.0896593 0.295543 
0.0789454 0.583428 0.113091 0.572993 0.11953 0.556724 0.20733 0.366227 0.102009 
0.285015 0.112413 0.0975155 0.165301 0.15118 0.260884 0.0944187 0.439441 0.100944 
0.388667 0.0504309 0.282395 0.0565185 0.214296 0.157353 0.219186 0.0875177 0.267436 
0.140888 0.23438 0.100567 0.296639 0.0725983 0.394894 0.13519 0.24885 0.0861285 
0.212861 0.142155 0.235991 0.137727 0.220305 0.141897 0.24166 0.154055 0.135045 
0.129492 0.228335 0.0994943 0.342661 0.0830676 0.237254 0.107761 0.312424 0.1275 
0.204276 0.186933 0.476821 0.132954 0.223326 0.141122 0.284653 0.141974 0.577694 
0.0874577 0.272357 0.118805 0.340383 0.212781 0.104802 0.337756 0.271447 0.0954976 
0.245755 0.149851 0.569665 0.111051 0.35281 0.140122 0.215723 0.136069 0.373536 
0.161336 0.252201 0.135487 0.168645 0.135536 0.27615 0.1373 0.270383 0.150334 
0.211579 0.19269 0.308808 0.177872 0.177628 0.155365 0.301622 0.114359 0.378266 
0.0740724 0.471557 0.131669 0.32361 0.0803093 0.235028 0.219773 0.272501 0.183019 
0.322733 0.171611 0.332378 0.148253 0.290351 0.174489 0.233733 0.13414 0.368459 
0.082058 0.228486 0.175031 0.257371 0.125412 0.213969 0.171556 0.327024 0.0998492 
0.239919 0.171675 0.227905 0.189248 0.290234 0.126071 0.280497 0.209984 0.258995 
0.230954 0.234174 0.085792 0.0852737 0.217999 0.062081 0.100952 0.12457 0.291747 
0.0576599 0.120725 0.373997 0.0771962 0.301234 0.0745078 0.560939 0.0724171 0.15588 
0.0895707 0.169636 0.116303 0.147259 0.139818 0.280667 0.0930063 0.198458 0.116257 
0.6065 0.0975448 0.216989 0.131746 0.173973 0.154588 0.247846 0.120566 0.166174 
0.0939696 0.189974 0.0983195 0.249045 0.125445 0.162393 0.151143 0.21437 0.14632 
0.585878 0.321353 0.129909 0.216361 0.153388 0.22222 0.134798 0.483686 0.0987862 
0.214507 0.0959219 0.165047 0.156399 0.140844 0.195915 0.168045 0.130283 0.122851 
0.20561 0.139923 0.13896 0.126293 0.13197 0.12677 0.200444 0.174504 0.1332 
0.301485 0.111693 0.269452 0.0783844 0.579585 0.0747347 0.163669 0.185121 0.170433 
0.139316 0.131743 0.338533 0.131654 0.141974 0.250441 0.143989 0.231502 0.15688 
0.263638 0.160849 0.321636 0.136167 0.203262 0.17977 0.199138 0.190318 0.571653 
0.124761 0.214638 0.140532 0.265387 0.166543 0.263471 0.281162 0.125943 0.15738 
0.153385 0.316456 0.15452 0.236105 0.168263 0.229033 0.219064 0.287731 0.195226 
0.291014 0.125841 0.224181 0.157646 0.185704 0.144098 0.216302 0.190024 0.132545 
0.127185 0.216972 0.193441 0.204444 0.187022 0.187256 0.181849 0.344429 0.16124 
0.365994 0.122328 0.162816 0.153029 0.217925 0.115563 0.197185 0.181257 0.233983 
0.227953 0.0952034 0.235425 0.0971615 0.119734 0.198252 0.0841686 0.135756 0.12782 
0.115778 0.211075 0.116659 0.158066 0.0842239 0.289838 0.106136 0.131967 0.178849 
0.150871 0.140053 0.136916 0.208314 0.13818 0.152677 0.141619 0.257427 0.0754308 
0.247844 0.0835199 0.239564 0.0830721 0.194247 0.154293 0.372908 0.107889 0.182574 
0.136525 0.119425 0.151817 0.146069 0.095867 0.231467 0.108097 0.176645 0.169213 
0.237948 0.139043 0.147611 0.134245 0.411994 0.111586 0.268249 0.122171 0.127467 
0.221292 0.212423 0.259521 0.13815 0.188695 0.157516 0.241944 0.165478 0.263435 
0.137048 0.141044 0.133503 0.138016 0.131812 0.192316 0.163388 0.212763 0.206146 
0.152188 0.145399 0.167414 0.133444 0.169123 0.154477 0.233449 0.151912 0.194882 
0.159387 0.232182 0.151058 0.275169 0.208084 0.347207 0.114242 0.248221 0.220182 
0.217031 0.167222 0.165043 0.314912 0.112963 0.224807 0.214867 0.18568 0.181664 
0.240054 0.197493 0.284297 0.177636 0.21992 0.164902 0.249916 0.217554 0.153321 
0.147328 0.221184 0.138761 0.216097 0.19504 0.290928 0.117098 0.251473 0.162568 
0.26295 0.171781 0.176513 0.154235 0.226412 0.174582 0.329705 0.163455 0.21356 
0.0824978 0.204886 0.0912534 0.148509 0.138887 0.288842 0.116416 0.185677 0.17078 
0.113766 0.111488 0.181155 0.165676 0.0756594 0.481641 0.0950383 0.186935 0.16845 
0.154803 0.146379 0.197188 0.168624 0.305045 0.0811004 0.211109 0.122471 0.583773 
0.106384 0.208068 0.142973 0.207443 0.135081 0.203352 0.158193 0.194095 0.17108 
0.542242 0.0966536 0.361989 0.0922848 0.194119 0.143103 0.268596 0.0850784 0.229341 
0.105044 0.18547 0.128889 0.180984 0.102927 0.179741 0.154189 0.156827 0.140385 
0.22537 0.133287 0.208615 0.0872166 0.205953 0.186183 0.192109 0.166612 0.317978 
0.0736303 0.315046 0.136631 0.209738 0.189355 0.237444 0.167486 0.273376 0.128891 
0.208543 0.187412 0.299456 0.13021 0.274709 0.205793 0.383638 0.073094 0.386167 
0.105073 0.27224 0.233532 0.270844 0.190246 0.216291 0.177942 0.150548 0.145958 
0.337522 0.125081 0.243072 0.116778 0.208862 0.176543 0.347871 0.124731 0.194508 
0.185309 0.236049 0.179603 0.255387 0.212399 0.287673 0.19833 1.16665 0.0655528 
0.241205 0.0731293 0.23958 0.0588685 1.00471 0.0683521 0.117284 0.108971 0.237287 
0.0728282 0.823754 0.0431453 0.217044 0.0945839 0.224368 0.0890306 0.210883 0.0430202 
0.708988 0.0862063 0.22178 0.0879584 0.186559 0.0681052 0.21028 0.0700598 0.139293 
0.0836944 0.868809 0.0642094 0.204165 0.122503 0.187534 0.0982535 0.779743 0.0432879 
0.198571 0.181625 0.286953 0.0448958 0.18021 0.0788195 0.285877 0.0531418 0.182045 
0.081934 0.184216 0.0886519 0.174384 0.166386 0.158538 0.15088 0.85798 0.095753 
0.253911 0.0389574 0.191235 0.0550532 0.176907 0.124112 0.608641 0.0912311 0.740504 
0.0736517 0.495033 0.0667577 0.857583 0.0934793 0.181937 0.124851 0.122117 0.118665 
0.364832 0.0938079 0.167843 0.107488 0.368297 0.111781 0.244123 0.0612346 0.126552 
0.117621 0.609966 0.113862 0.658583 0.0589428 0.226346 0.123813 0.606206 0.0540328 
0.232672 0.0660052 0.135383 0.122758 0.388761 0.0655695 0.607957 0.0874375 0.178781 
0.0824807 0.191961 0.147512 0.348248 0.045694 0.267537 0.0640738 0.304489 0.0733154 
0.196513 0.133882 0.211797 0.107146 0.272156 0.0999598 0.173126 0.116725 0.488516 
0.0734723 0.176756 0.0922203 0.134179 0.126446 0.2668 0.0553072 0.243777 0.123626 
0.20754 0.151722 0.736318 0.119155 0.481099 0.0758483 0.17662 0.109268 0.173578 
0.0834524 0.418351 0.060072 0.265563 0.0868093 0.213254 0.153732 0.194925 0.0889099 
0.172059 0.151877 0.182366 0.173272 0.170408 0.153881 0.232682 0.10655 0.23497 
0.106033 0.713984 0.0782673 0.405089 0.104572 0.169074 0.128726 0.165627 0.0795164 
0.477202 0.101059 0.162547 0.104996 0.204579 0.117484 0.19343 0.147089 0.243645 
0.0809972 0.379812 0.0724178 0.164454 0.152268 0.218911 0.0713516 0.224548 0.128768 
0.564588 0.0866942 0.185805 0.0928446 0.632628 0.0767086 0.196293 0.181122 0.1336 
0.120117 0.230069 0.085301 0.216237 0.129481 0.15839 0.115596 0.181055 0.130664 
0.134422 0.125519 0.574228 0.106844 0.1995 0.0854016 0.158069 0.14347 0.226673 
0.134493 0.193537 0.168879 0.629301 0.0918824 0.164726 0.159668 0.227541 0.133775 
0.158012 0.133545 0.475686 0.0747501 0.162063 0.0909784 0.353835 0.0868015 0.200931 
0.100377 0.178821 0.167588 0.299257 0.117874 0.230705 0.10448 0.149883 0.130581 
0.163831 0.155729 0.163283 0.100785 0.627946 0.0959192 0.289445 0.0864114 0.345832 
0.104076 0.32029 0.0659347 0.282777 0.173413 0.152827 0.143775 0.165822 0.153719 
0.164753 0.124984 0.189301 0.164916 0.605658 0.0997977 0.259113 0.200973 0.149006 
0.131612 0.172145 0.160711 0.12927 0.119979 0.496342 0.0980508 0.175662 0.135683 
0.356637 0.0971173 0.171957 0.118353 0.152421 0.145996 0.183192 0.173969 0.193037 
0.163068 0.327327 0.123536 0.582593 0.0941818 0.233731 0.154568 0.220935 0.145048 
0.247516 0.133793 0.20712 0.139888 0.270791 0.113713 0.152082 0.139788 0.153466 
0.0976486 0.132127 0.128291 0.170986 0.154681 0.208592 0.200251 0.20445 0.173037 
0.19933 0.193601 0.173095 0.152471 0.464076 0.116168 0.140488 0.111956 0.352128 
0.121765 0.219152 0.179949 0.566802 0.114628 0.22364 0.197294 0.200554 0.193079 
0.229041 0.215571 0.43308 0.108705 0.299191 0.165775 0.177377 0.106174 0.184369 
0.168406 0.173139 0.158651 0.343491 0.122097 0.297455 0.123212 0.375195 0.111683 
0.224061 0.143463 0.246891 0.146138 0.225531 0.214475 0.235807 0.186081 0.184549 
0.178044 0.370877 0.125758 0.2131 0.201109 0.252012 0.224695 1.00494 0.0880542 
0.100088 0.0927787 0.231197 0.102058 0.86899 0.0743183 0.8187 0.0717307 0.704655 
0.0822248 0.216891 0.119175 0.187984 0.0848053 0.420397 0.0739512 0.776084 0.0803818 
0.858247 0.0838089 0.610931 0.042578 0.137911 0.126759 0.775797 0.100999 0.102529 
0.10002 0.190407 0.0958598 0.159741 0.122676 0.119361 0.11195 0.130646 0.127303 
0.740728 0.0716376 0.17153 0.146358 0.124994 0.123719 0.211892 0.104014 0.124629 
0.108216 0.203185 0.110309 0.138516 0.122365 0.148828 0.107313 0.73927 0.0873639 
0.127254 0.121164 0.15422 0.143374 0.738863 0.072163 0.73766 0.0784043 0.156917 
0.152923 0.125318 0.116772 0.700844 0.0880281 0.144668 0.121325 0.700381 0.100952 
0.174272 0.165199 0.159463 0.14966 0.197547 0.161557 0.38135 0.087423 0.419633 
0.0877242 0.714433 0.0882418 0.191712 0.107648 0.584392 0.0995168 0.443164 0.0948643 
0.138979 0.131 0.444983 0.102477 0.181886 0.168332 0.131721 0.127418 0.126998 
0.125299 0.139249 0.128441 0.180786 0.167496 0.200621 0.128595 0.136075 0.130706 
0.188415 0.168167 0.402753 0.105935 0.220137 0.137386 0.155939 0.138112 0.150242 
0.118757 0.19641 0.132954 0.406544 0.0895721 0.44171 0.109725 0.562083 0.102653 
0.633652 0.107187 0.172521 0.142669 0.15423 0.147002 0.173543 0.166356 0.129783 
0.119442 0.487116 0.0876206 0.418435 0.103475 0.420369 0.100678 0.400295 0.0916672 
0.628647 0.0939763 0.156579 0.145587 0.181188 0.156228 0.143233 0.131703 0.142609 
0.128665 0.178577 0.104317 0.486169 0.0773611 0.152532 0.136173 0.196094 0.131518 
0.23777 0.116514 0.12062 0.117607 0.134924 0.12585 0.166468 0.155657 0.543192 
0.0764556 0.153082 0.145084 0.223122 0.12674 0.495063 0.108277 0.335244 0.107836 
0.202436 0.180515 0.19452 0.114498 0.208561 0.120733 0.210139 0.205151 0.150764 
0.135044 0.285082 0.100477 0.16031 0.152366 0.153121 0.141523 0.146859 0.13884 
0.25371 0.14384 0.197032 0.154534 0.18028 0.145264 0.366959 0.124517 0.227439 
0.123747 0.203909 0.175729 
