# vtk DataFile Version 4.1
vtk output
ASCII
DATASET POLYDATA
POINTS 1300 float
16125 47875 54078.1 15403.1 46113.6 52634.4 16702.5 45407.6 50901.9 
18440.5 44082.8 47624.6 25782.7 39625 46085.9 22307 41910.4 46627.6 
12407.1 41792 42654.7 7552.22 36531.2 43507.8 17898.9 42421.6 42956.4 
6776.72 36789.1 37062.5 25231.9 39772.8 45943.4 28551.6 36273.4 44023.4 
22963.3 40063.8 41217.7 21539.1 40203.5 35257.8 8907.38 36872.9 43740.2 
6843.75 31739 45312.5 27792.4 37090.8 43964.3 29531.2 35362.8 39898.4 
8123.22 34922 44337.7 5554.69 31937 40929.7 7266.25 36791.3 37234.4 
4728.66 33437.5 34226.6 16692.7 41609.7 37360.4 12000 40715 35000 
28870.5 36019.5 41443.5 27001.6 37820.3 36804.7 7147.15 32088.5 44899.1 
5812.5 26277.5 44796.9 28323.8 36518.6 44005.7 31078.1 30859.4 43576.9 
22104.1 40309.4 36109 22828.1 41229.6 29843.8 6060.51 32159 41597.2 
4214.06 27765.6 39125 5340.91 34054.3 34425.1 4207.87 31375 29843.8 
29546.1 35339.5 39985.3 31667 33179.7 35773.4 22033.3 40979.3 31783.9 
18960.9 41742.2 28039.1 30251.8 32557.2 43705.5 31652.5 30859.4 39640.6 
12257.8 41171.9 31139 28009.9 37137.2 37959.1 29531.2 37442.9 33453.1 
19249.1 41464.5 28725.3 15093.8 41230.7 25718.8 5949.56 27405.1 44355.3 
4217.16 23125 41445.3 12618.3 40596.6 35292.3 8132.81 38662.8 32937.5 
5853.65 26615.8 44664.4 6070.31 22093.8 48289.7 4547.77 32178.8 31218.2 
4207.87 26734.4 31132.8 30830.2 31368.7 43615.5 30098.4 26734.4 45312.5 
31092.4 33221.4 36730.2 31652.5 29312.5 34484.4 22558.5 41194.4 29992.2 
23343.8 41746.3 24945.3 31494.5 33192.2 36060.5 31131.8 32921.9 30875 
8559.65 38480.2 32997.3 5812.5 36352.8 31132.8 4426.09 28786.7 30555.9 
4722.47 24671.9 26750 4309.87 31616.1 30256.1 4207.87 30343.8 24687.5 
29001.4 37450.7 33740 29377.6 37820.3 29328.1 13095.3 41126.6 31112.1 
10453.1 40516 27007.8 16340.3 41300.9 26620.7 16382.8 41745.2 21851.6 
4716.8 25855.1 27236.2 5253.56 25187.5 22882.8 31232.3 31368.7 40860.1 
30820.3 25140.1 39640.6 30049.6 27206.7 44697.3 29087.8 23125 45054.7 
29144.3 37591.2 32063.5 26821.1 40140.6 30101.6 27616.6 39255.5 30282.9 
26695.3 40192.2 26492.2 23420.5 41234.7 25838.8 25406.2 39156.8 21593.8 
31269.6 33024.6 32845.5 31087.4 29312.5 30875 4377.62 30360.4 25013.3 
4726.59 29312.5 21078.1 4720.72 25026.8 26895.9 5225.72 21578.1 29585.9 
24651.7 39946.4 23206.9 22476.5 40656.2 19015.6 29307.6 37751.5 30148.7 
29546.7 34468.8 26750 4721.95 24778.4 26793.8 6328.12 21312.1 24945.3 
15196.7 41188.5 25853.9 12000 40714 23914.1 5453.01 25079 23589 
7713.09 23125 19531.2 7735.47 37842 32438 7307.81 38335.9 28812.5 
29267.4 23793.9 44633.3 28515.5 20031.2 42734.4 16008.3 41442.5 22277.9 
15093.8 41171.9 17923.5 25069.1 39164.9 21998.6 25315.5 36789.1 19531.2 
30519 26121.7 39381.2 29273.4 21527.6 37320.3 29141.7 23325.7 44928.3 
27984.4 20735.6 48406.2 5846.33 22352 25499.8 6585.94 19515.6 27381.1 
30954.8 29753.6 31407 29789.1 25304 30875 5256.45 21815.5 29158.2 
5912.53 18484.4 31132.8 29252.4 35689.9 27506.4 28042.1 34984.4 23656.2 
5313.37 25154.9 23094.7 6070.31 26476.6 19483.8 4676.79 30004.1 22094.5 
5243.25 31632.8 18500 31047.6 29444.8 31034.6 29604.5 30085.9 27007.8 
29855.5 23690.6 37845.5 29605.5 22867.2 34742.2 25241.6 37501.8 20271.5 
22510.5 37562.5 15921.9 29680.5 23114.2 35673.2 28500 20490.2 35000 
7233.77 38022.1 29394.4 5953.78 37046.9 25976.6 28609.3 22134.2 46528.1 
27328.5 17968.8 45828.1 6350.91 21529.7 25236.4 8521.59 18484.4 24687.5 
27955.5 35081.5 23844 26695.3 34726.6 21026.6 6334.93 21377.4 25032.6 
8132.81 20804.7 22065 29710.2 26117.8 30467.7 28175.2 23125 28812.5 
7919.34 23479.8 19949.8 10195.3 22248.4 16953.1 26863.3 34569.7 21433.5 
25465 32921.9 18500 6082.48 26004.8 20140.5 7617.19 25655.7 17210.9 
24310.7 37093.6 18510.4 23859.4 34468.8 16080.7 15376.8 41179 18458 
15351.6 40700.6 13343.8 6788.47 25844.2 18792.9 6768.47 28796.9 16179.7 
16270.5 41654.4 21979.4 19476.6 42260.9 20304.7 6127.44 18797.8 30776.1 
7617.19 14845.1 32679.7 5408.14 31616.9 18784 6479.72 33437.5 15406.2 
13046.6 40802 24123.8 11484.4 40156.1 20562.5 29198.9 21978.1 37654.4 
26953.1 18101.8 38093.8 7014.01 37918.2 27740.4 8132.81 39160.9 24171.9 
7644.72 25620 17331.5 9885.94 24929.7 14117.2 23366.8 41592.8 25213.3 
21539.1 42260.9 22625 28732.7 21289.6 34874.7 27210.9 19640.4 32421.9 
6225 37063.1 26124.7 5240.16 34984.4 22625 27242 18156.2 45851.7 
25921.9 15067.8 45312.5 6657.2 19776.1 27073.6 8521.59 15906.2 28812.5 
28382.4 23897 28891.8 26695.3 22867.2 26186.9 6994.21 28462.4 16172.1 
7288.22 30601.6 13859.4 15178.7 41174 18083.9 12515.6 39682.7 17468.8 
6616.46 33143.7 15620.9 8192.62 34468.8 12312.5 23771.5 34997 16353.6 
22361 33179.7 13343.8 8675.66 25302.5 15852.9 8537.06 27507.8 13343.8 
6987.51 16187.1 32410.5 6843.75 14549.1 35515.6 26949.9 18607.9 38025.4 
24375 15479.3 38351.6 6909.85 15302.6 34087.2 9164.06 12730 34742.2 
25690 32933.7 19028 24375 29828.1 16613.8 8663.7 27451.8 13497 
8830.97 29828.1 11023.4 7774.76 38620.7 24519.7 8132.81 38651.5 21335.9 
27576.5 19988.6 33548.8 25148.4 17062.3 32937.5 8542.74 16244.8 28683.9 
10195.3 13798.4 29843.8 27101.8 19660.5 32653.6 24890.6 18316.3 29328.1 
28237.3 23356.6 28836.3 27008.8 20804.7 29585.9 25839 15424.7 45385.4 
24117.2 12812.5 44956.7 27022.1 23253.5 26526.9 25775.4 23640.6 23398.4 
24383.5 30605.3 16831.7 22902.4 29054.7 14632.8 7957.4 34346 13470.4 
10453.1 36904.6 12312.5 8025.36 38642.2 22291.1 6281.72 36273.4 19531.2 
13339.4 40031.4 17323.1 11742.2 38445.2 14890.6 26249.2 23493.5 24587.2 
26953.1 26476.6 22833.3 7052.68 14579 35262.4 8132.81 12448.5 38093.8 
9959.75 36168.1 12336.4 11742.2 36578.7 10250 24948.5 18347.7 29959.2 
22570.3 16892.1 27781.2 23111.4 29509.5 14821.9 21539.1 29312.5 11743.2 
24102.5 13135.5 45155.6 21605.1 10234.4 45054.7 7362.78 37742.1 21242.3 
8523.66 38078.1 17726.6 22965.1 29191.1 14689.5 22828.1 26218.8 15558.9 
26793.3 22983.1 26288.9 24926.7 20289.1 25976.6 7808.79 13087.6 37244.3 
6328.12 12812.5 40615.2 6575.42 33231.8 15556.5 7101.56 36015.6 16555.1 
26741.9 25581.7 23359.5 24959.7 26218.8 19789.1 22913 28061.6 15019.9 
21281.2 25852.7 13085.9 8091.46 12500.5 38093.6 9017.62 10492.2 41187.5 
23283.8 17328.8 28434.6 22364.1 18226.6 25203.1 23783.2 17634.4 28892 
21023.4 14864.7 29585.9 29839.5 29624.1 27805.4 28500 28023.4 24939.1 
21747 29070.7 12329.3 19992.2 27205.7 9992.19 6943.68 35180.5 16255.5 
9164.06 37129.4 15148.4 22649.4 26686.3 15269.6 21290.5 23898.4 15148.4 
22499.6 18250.8 25515.3 21796.9 19339.3 22625 22600.9 16975.6 27986.3 
19781.8 15648.4 26492.2 22404.7 18233.8 25296.8 19218.8 17083.9 23398.4 
21184.7 15304 29652.6 18445.3 13268.3 30617.2 29614.8 29922.6 27089.8 
28821.8 30601.6 24687.5 22176.3 18751.5 24185.8 23859.4 21062.5 22970.5 
20225.6 17674.2 23665.8 18445.3 18425.6 20562.5 18600 13647.2 30308.5 
15867.2 12294.8 30617.2 28760.1 30402.2 24836.1 27468.8 30859.4 21786.6 
23027.4 20275.5 23119.8 23085.9 22539.2 20304.7 18491.7 13382 30524.6 
17671.9 12236 33195.3 17604.5 12430.5 32618.6 15609.4 11415.2 34226.6 
20175.4 15790.2 27021.5 17156.2 14101.6 27391.4 17651.7 12294.4 33022.3 
17929.7 11751.3 35773.4 21834.6 19349.9 22652.3 21281.2 20385 20046.9 
21169.6 20315.7 20194.8 20250 21320.3 17597.7 20893.7 20617.1 19415.7 
18187.5 19666.2 18242.2 15896.9 45845.4 51976 20234.4 43273 46950.5 
17647.7 43108.6 44658.6 17885.5 43400.8 45548.4 16455.6 42958 43741.1 
15088.3 42640.8 42565.4 10059.9 38816.9 43147.2 8390.62 38460.7 42218.8 
22652.4 40408.4 41976.8 17983.4 41534.4 39955.5 18703.1 40715 38609.4 
8803.64 38387.4 42327.1 7167.56 37046.9 40671.9 26260.1 38078.1 40414.1 
26778.7 38140.6 44448.7 26953.1 37884.2 42476.6 7658.44 37449 41168.4 
6480.75 35242.2 41703.1 7253.26 37039.3 40705 6272.44 35757.8 39382.8 
6515.3 35937.4 39881.6 5554.69 33836.6 39640.6 21708.6 40235.3 35513.2 
19734.4 40715 35000 6934.81 31843.9 45188.4 6341.63 30059 44018.1 
5296.88 28854.6 42218.8 28849 36189.3 39524.9 29531.2 35668.1 37578.1 
30569.4 32359.5 42476.5 30629.5 33437.5 40414.1 24206.2 39565.6 35975.4 
24422.4 39882.8 33710.9 5520.76 28919.1 42632.4 4881.28 26992.2 41703.1 
5696.17 31935.4 40945.3 4722.47 31117.2 38609.4 20360.4 41166.2 30723.2 
18445.3 41230.7 30617.2 15046.5 41260.3 31678.1 14578.1 41230.7 29585.9 
24484.3 39956 33858.1 24890.6 40506.7 31648.4 29527.5 35789.1 37778.9 
30820.3 35526.8 35257.8 27267 37730.6 36899.8 26953.1 38496.8 35257.8 
14872.4 41240.1 29822.3 13497.5 40799.8 35545.5 11484.4 40516 37578.1 
5842.82 34466.8 39712.9 5223.66 33695.3 37835.9 4889.94 30945.9 39068.1 
4207.87 29570.3 37578.1 26909.2 38443.1 35350.1 26437.5 39180.5 33710.9 
26579 38959.3 34202.7 27726.6 39109.4 32708.6 13992.8 41188.1 31372.5 
19760.3 41327.3 29644.3 21023.4 41745.2 27781.2 5922.43 22818.1 47091.3 
5727.94 20804.7 47117.2 4655.44 28675.7 39140.8 4207.87 27250 37062.5 
31259 28861.8 39495.9 31652.5 28023.4 38351.6 30588.9 35654.4 35357.6 
31101.8 35757.8 33453.1 19071.8 41601 28100.3 4297.6 30453.2 28016.1 
4207.87 28539.1 26750 4474.04 27491.3 29523.8 4207.87 25187.5 29585.9 
31475.6 30948.4 35738.8 32109.4 28991.8 36546.9 7273.78 38191.6 29080.2 
9371.34 39882.8 28812.5 19078.2 41754.5 26709.3 20250 42254.7 24687.5 
31532.2 29429.4 34714.8 31133.8 26992.2 33710.9 4238.3 28790.6 26722 
4214.06 27250 25203.1 26555.5 40214.3 27257.6 25406.2 41073.9 25976.6 
6267.08 36374 31622.7 5238.09 34726.6 31390.6 10579 40498.4 27106.6 
9679.69 40170.5 25460.9 5218.5 25149.3 24947.1 5618.62 23640.6 24171.9 
5616.56 35373.6 31237.7 4781.25 34288.3 29585.9 4293.78 27984.7 25603.6 
4709.06 27765.6 23398.4 29269 36308.4 28299.1 30108.8 34210.9 28554.7 
12314 40740.4 23977 11226.6 40692.3 24945.3 16249.5 41514.4 19780.7 
16898.4 41745.2 18242.2 12094.2 40721.9 23932.9 10710.9 40210.8 23656.2 
29765.4 25548.1 30752.8 30562.5 25440.2 32679.7 4970.69 34397.1 29779.3 
4523.44 32972.4 27781.2 29873.3 34560.7 28330.2 30046.9 32664.1 27444 
7056.08 21313.3 23584.7 6991.22 22351.6 22109.4 30083.8 26876.1 45127.9 
[...]
CELL_DATA 1299
SCALARS radius float
LOOKUP_TABLE default
1.16266 1.16161 1.02637 0.069154 0.969668 0.783418 0.0806261 0.541529 0.0408585 
0.881512 0.0615821 0.604103 0.0551033 0.427451 0.0634332 0.879767 0.0458467 0.424078 
0.0634074 0.724753 0.0675684 0.535609 0.0800636 0.690831 0.0528988 0.351645 0.0661994 
0.705556 0.0568105 0.58842 0.0671543 0.298453 0.120699 0.72179 0.074304 0.519458 
0.0668137 0.585954 0.0629105 0.705027 0.0627278 0.0787542 0.563832 0.0779784 0.472229 
0.0659531 0.316266 0.16563 0.492295 0.0776993 0.289062 0.137761 0.720037 0.108867 
0.449416 0.0645911 0.516712 0.0578285 0.443751 0.0759246 0.491359 0.107999 0.487235 
0.092608 0.671808 0.0552842 0.410475 0.075225 0.547532 0.0876511 0.271229 0.0646805 
0.450438 0.0728423 0.667873 0.0517704 0.635677 0.090553 0.443839 0.051832 0.547004 
0.106558 0.225663 0.104203 0.439678 0.0907634 0.488586 0.0653652 0.391713 0.0803047 
0.569419 0.0681787 0.420305 0.0797834 0.532729 0.0822178 0.437159 0.0599612 0.317482 
0.0734438 0.479661 0.102485 0.486576 0.077879 0.430053 0.113263 0.38629 0.0607916 
0.34808 0.0944196 0.625742 0.0686932 0.404297 0.108634 0.435141 0.0873364 0.486821 
0.0614607 0.464588 0.0899035 0.506499 0.069659 0.424812 0.100094 0.390786 0.08334 
0.322294 0.0713224 0.624258 0.0928075 0.346011 0.146394 0.60072 0.069106 0.43262 
0.0747754 0.400984 0.0742351 0.354609 0.0677184 0.498441 0.0866086 0.306081 0.071367 
0.423218 0.0788667 0.306754 0.136259 0.493422 0.0961614 0.418006 0.0684984 0.326694 
0.13107 0.356897 0.165988 0.416084 0.0814539 0.215424 0.144835 0.46183 0.125055 
0.365872 0.0890733 0.312215 0.134876 0.29502 0.0950028 0.421247 0.105911 0.342599 
0.0862854 0.189576 0.131743 0.597595 0.0531497 0.277066 0.122958 0.375559 0.0946043 
0.327703 0.10119 0.407597 0.0795295 0.300278 0.12563 0.263498 0.114616 0.359993 
0.141025 0.256299 0.209242 0.341684 0.0954417 0.455879 0.0739652 0.280768 0.118202 
0.45272 0.108238 0.490831 0.0857499 0.309984 0.180885 0.364151 0.121457 0.591662 
0.107423 0.287729 0.154174 0.582882 0.0628049 0.232131 0.129115 0.349698 0.106861 
0.380774 0.130328 0.477907 0.0811105 0.313798 0.167241 0.35631 0.121871 0.243609 
0.19171 0.369159 0.0969534 0.402661 0.0540083 0.250306 0.222431 0.5711 0.0764622 
0.440804 0.0782242 0.340591 0.172624 0.351542 0.11626 0.377143 0.0971929 0.169845 
0.163822 0.365226 0.170307 0.250685 0.136128 0.363663 0.0817694 0.375889 0.173944 
0.320022 0.147566 0.527793 0.0653263 0.566849 0.0971426 0.321395 0.110978 0.309487 
0.128955 0.246879 0.142376 0.336758 0.163742 0.483569 0.043695 0.30783 0.0840446 
0.268135 0.136707 0.327462 0.0841564 0.279118 0.064897 0.454359 0.0805782 0.266837 
0.168051 0.324587 0.169118 0.277557 0.118274 0.326248 0.181374 0.271817 0.108715 
0.269101 0.202001 0.299626 0.151828 0.224033 0.215152 0.384372 0.0929097 0.371442 
0.083574 0.343194 0.19289 1.16213 0.970322 0.548259 0.550824 0.181657 0.175919 
0.45739 0.070225 0.608242 0.540317 0.0655432 0.255738 0.052514 0.0766714 0.880582 
0.0785149 0.253961 0.116793 0.23818 0.0892967 0.237326 0.102088 0.13663 0.111514 
0.166895 0.338639 0.0971389 0.574414 0.0574014 0.637982 0.0963163 0.226218 0.0747875 
0.182474 0.142138 0.235392 0.0912035 0.484599 0.0665872 0.301776 0.0914523 0.207699 
0.102375 0.217455 0.061369 0.237517 0.0586174 0.153678 0.500088 0.079803 0.233035 
0.09715 0.233848 0.105491 0.213548 0.0959877 0.212066 0.0982705 0.28786 0.474336 
0.112299 0.261565 0.16511 0.238355 0.131144 0.633413 0.0542178 0.207851 0.0804552 
0.235928 0.409662 0.0742822 0.670114 0.0908898 0.263375 0.116394 0.1839 0.134546 
0.234427 0.101587 0.248122 0.121879 0.197082 0.111587 0.202642 0.155113 0.318414 
0.0616197 0.237462 0.11083 0.483859 0.0865408 0.310956 0.0847971 0.193499 0.13931 
0.523424 0.0865171 0.182324 0.136803 0.362525 0.129759 0.151838 0.145879 0.189177 
0.103303 0.286405 0.104277 0.237914 0.0847628 0.305312 0.107656 0.189931 0.118391 
0.434264 0.0594307 0.392648 0.1157 0.220369 0.0807841 0.530555 0.0804248 0.219494 
0.105239 0.273799 0.0927703 0.187177 0.140394 0.230177 0.12581 0.287602 0.0790426 
0.25154 0.0876693 0.208942 0.151896 0.273088 0.0903291 0.370628 0.131684 0.216756 
0.119915 0.168378 0.165135 0.599981 0.0975294 0.261316 0.143671 0.23369 0.176434 
0.184632 0.0900744 0.263413 0.149747 0.182634 0.104171 0.242693 0.121408 0.282352 
0.118842 0.37459 0.11374 0.169833 0.161659 0.212612 0.133371 0.156435 0.14577 
0.183163 0.0676501 0.271069 0.160154 0.242214 0.172488 0.249565 0.117951 0.181659 
0.138963 0.227437 0.215265 0.489598 0.113037 0.161703 0.147051 0.576789 0.100145 
0.347374 0.134035 0.291472 0.165314 0.325622 0.150395 0.283495 0.162982 0.279956 
0.0972476 0.471667 0.0914305 0.265657 0.160137 0.229056 0.118677 0.274456 0.183595 
0.396414 0.140058 0.218071 0.157729 0.382562 0.144519 0.268145 0.100647 0.295102 
0.155789 0.233924 0.161047 0.216961 0.184582 0.27393 0.182967 0.228235 0.197571 
0.197989 0.193832 0.234178 0.175876 0.320335 0.132398 0.279703 0.194257 0.258087 
0.19818 0.280754 0.199996 0.241996 0.227991 0.161592 0.153105 0.225412 0.131335 
0.233053 0.132626 0.254295 0.168529 0.295697 0.127384 0.21901 0.191339 0.293688 
0.0744402 0.209441 0.196028 0.369494 0.175584 0.302794 0.156691 0.288106 0.21571 
0.129188 0.132464 0.785175 0.0704077 0.462986 0.0656611 0.16593 0.127279 0.122409 
0.10942 0.159889 0.0914535 0.239684 0.0703082 0.135132 0.119412 0.123729 0.112139 
0.147857 0.105128 0.357486 0.109461 0.7054 0.0822101 0.722276 0.0912366 0.111768 
0.165858 0.10899 0.146506 0.129918 0.122656 0.109226 0.103663 0.120058 0.112453 
0.191998 0.112508 0.720681 0.100068 0.230509 0.094713 0.501558 0.103403 0.178145 
0.0825932 0.179216 0.107484 0.490244 0.094505 0.195578 0.143213 0.21172 0.154225 
0.226312 0.0985471 0.165273 0.111402 0.138745 0.112581 0.444965 0.0873792 0.124723 
0.119193 0.127456 0.0947521 0.48907 0.109463 0.634072 0.0926217 0.191144 0.141198 
0.255568 0.112318 0.237486 0.178802 0.218466 0.0534476 0.0608846 0.390158 0.120486 
0.227556 0.148828 0.181744 0.117404 0.160939 0.153937 0.144359 0.131183 0.180242 
0.14662 0.427601 0.107171 0.465828 0.0930351 0.431928 0.101479 0.217107 0.124322 
0.358502 0.0708018 0.20501 0.193588 0.285773 0.0946353 0.142977 0.131514 0.153635 
0.101329 0.153192 0.124627 0.171617 0.11343 0.157444 0.152519 0.237825 0.0947379 
0.160746 0.109531 0.234037 0.094755 0.196731 0.141519 0.240117 0.165682 0.38927 
0.0917886 0.154484 0.146847 0.210265 0.166488 0.500115 0.107784 0.157914 0.138485 
0.222513 0.142039 0.211746 0.13586 0.228444 0.140863 0.302892 0.134652 0.31653 
0.108556 0.497987 0.0851738 0.322986 0.114031 0.205247 0.137758 0.180512 0.111883 
0.15384 0.145818 0.201254 0.157455 0.26716 0.130695 0.314556 0.133533 0.187318 
0.161345 0.316892 0.0993863 0.292844 0.122631 0.244322 0.175694 0.24093 0.173023 
0.144094 0.137042 0.149051 0.144253 0.286165 0.152066 0.301848 0.132891 0.194968 
0.180754 0.277095 0.136216 0.306938 0.161469 0.214942 0.192518 0.187997 0.181732 
0.235674 0.164011 0.225383 0.191631 0.36114 0.123085 0.144089 0.137275 0.377249 
0.120045 0.32155 0.15125 0.199041 0.129462 0.17782 0.10307 0.362874 0.125108 
0.337048 0.163824 0.17471 0.165929 0.238339 0.13517 0.248153 0.138949 0.184879 
0.166884 0.20172 0.13752 0.203342 0.194766 0.246181 0.157314 0.240712 0.17694 
0.255984 0.220006 0.181698 0.166693 0.490285 0.111401 0.228458 0.18647 0.254272 
0.236491 0.265424 0.182312 0.262811 0.229531 0.24414 0.231505 0.229352 0.146858 
0.333255 0.131734 0.24167 0.105051 0.226745 0.190486 0.233071 0.176347 0.142055 
0.140663 0.266252 0.208183 0.24239 0.155172 0.240307 0.153364 0.0916352 0.786312 
0.0791736 0.970505 0.0803151 0.785771 0.0768096 0.0576615 0.785527 0.0866537 0.122651 
0.118247 0.139294 0.0643061 0.133019 0.127808 0.608851 0.0878017 0.120338 0.113433 
0.10207 0.46026 0.0890095 0.881083 0.0442707 0.725072 0.079572 0.117443 0.110201 
0.591255 0.0642745 0.245445 0.108418 0.309602 0.0858896 0.160206 0.141234 0.359833 
0.0967541 0.589063 0.087458 0.307382 0.0907229 0.13496 0.119616 0.187333 0.110213 
0.319968 0.103971 0.217557 0.110172 0.10481 0.100111 0.519339 0.0950463 0.160659 
0.0939458 0.517585 0.0887932 0.156821 0.144665 0.491588 0.0990673 0.148844 0.136422 
0.672502 0.0979807 0.27147 0.128281 0.283905 0.133098 0.125909 0.120849 0.443238 
0.0661973 0.179898 0.166888 0.22018 0.161071 0.135494 0.101981 0.268363 0.101893 
0.205297 0.0930519 0.127682 0.121452 0.164761 0.109224 0.249226 0.127859 0.163676 
0.0752925 0.322135 0.104617 0.161669 0.102168 0.425345 0.101069 0.163374 0.130888 
0.628385 0.0905646 0.130313 0.113706 0.159393 0.117298 0.626512 0.0967158 0.169256 
0.144836 0.179121 0.119288 0.205316 0.107173 0.203516 0.151873 0.434044 0.0929225 
0.16716 0.150709 0.335612 0.0997152 0.182161 0.170674 0.117241 0.113762 0.180419 
0.158093 0.62511 0.0998874 0.153231 0.131689 0.230271 0.130569 0.181115 0.101318 
0.119412 0.111295 0.289938 0.123059 0.187408 0.115168 0.156565 0.153449 0.250926 
0.144819 0.128989 0.124159 0.212949 0.128151 0.156851 0.149852 0.492531 0.107233 
0.199434 0.179956 0.168449 0.157795 0.285021 0.100697 0.372357 0.114154 0.410224 
0.109632 0.268661 0.143023 0.199634 0.164501 0.161953 0.157906 0.284892 0.122841 
0.364425 0.120379 0.264922 0.145474 0.181347 0.128779 0.222531 0.180082 0.250228 
0.23263 0.190986 0.174219 0.194017 0.170107 0.368745 0.122778 0.168445 0.149001 
0.23498 0.206976 0.198508 0.18134 0.185426 0.115639 0.177659 0.160869 0.232587 
0.188179 0.246179 0.125454 0.204675 0.161916 0.170667 0.14799 0.20861 0.175588 
0.293006 0.147569 0.178616 0.152493 0.16042 0.0996847 0.243767 0.186753 0.199765 
0.191767 0.157145 0.142441 0.297209 0.113915 0.317507 0.133229 0.233399 0.174913 
0.227206 0.209987 0.251684 0.141389 0.222577 0.179294 0.211099 0.198622 0.28191 
0.181353 0.30625 0.122174 0.260804 0.213561 0.168424 0.150297 0.232231 0.212815 
0.17603 0.147196 0.207212 0.187238 0.207005 0.142666 0.285473 0.163738 0.210125 
0.20098 0.21561 0.16643 0.214375 0.211341 0.377793 0.138798 0.236889 0.213166 
1.16172 0.0775677 0.111511 0.786045 0.0796978 0.117811 0.105184 0.0819459 0.10509 
0.095674 0.783711 0.0813922 0.881716 0.0779833 0.88196 0.0828989 0.12193 0.103463 
0.881371 0.0874917 0.725315 0.0726013 0.429016 0.0951383 0.105291 0.102615 0.13181 
0.0648408 0.126505 0.12055 0.354031 0.0962312 0.105188 0.0998848 0.722696 0.086963 
0.163782 0.107688 0.162584 0.143564 0.108562 0.130223 0.109552 0.157407 0.135791 
0.131551 0.12688 0.172793 0.131762 0.518276 0.082221 0.174988 0.130478 0.636169 
0.084202 0.548378 0.0913494 0.549417 0.0979171 0.146388 0.13704 0.204415 0.135667 
0.142021 0.186581 0.176927 0.490947 0.092562 0.135841 0.451722 0.0921853 0.135894 
0.118403 0.158822 0.137922 0.12604 0.104818 0.670854 0.099928 0.161049 0.149947 
0.15853 0.138923 0.220904 0.171718 0.489848 0.0967657 0.139311 0.118672 0.211997 
0.184017 0.393856 0.0997302 0.231969 0.099684 0.164796 0.152211 0.156031 0.139799 
0.315781 0.112442 0.128428 0.125266 0.531937 0.105383 0.193083 0.154603 0.436864 
0.0994307 0.121079 0.113396 0.137683 0.11741 0.318177 0.081952 0.15165 0.134759 
0.217448 0.125157 0.166601 0.152144 0.501043 0.0886812 0.142223 0.126547 0.166261 
0.133325 0.166181 0.151216 0.14985 0.140051 0.149576 0.14088 0.178799 0.1434 
0.601473 0.0934553 0.293748 0.095278 0.206364 0.161003 0.169861 0.106682 0.144186 
0.130535 0.288349 0.0936221 0.300609 0.127059 0.460691 0.0973801 0.212713 0.160473 
0.169097 0.136649 0.182431 0.174728 0.181154 0.0959191 0.183101 0.152182 0.136909 
0.117892 0.17078 0.16026 0.214234 0.173902 0.168116 0.149642 0.177384 0.167494 
0.459237 0.128235 0.16807 0.15558 0.190774 0.170545 0.183089 0.14937 0.208657 
0.106236 0.192174 0.172385 0.169027 0.136487 0.177589 0.158066 0.20862 0.16585 
0.23602 0.147519 0.291256 0.156599 0.229735 0.202345 0.188011 0.164803 0.171205 
0.145181 0.206429 0.163862 0.214992 0.179987 0.166531 0.152167 0.308961 0.155958 
0.237739 0.22073 0.328021 0.134321 0.223978 0.180542 0.204923 0.180267 0.252302 
0.147644 0.235833 0.201462 
