# vtk DataFile Version 4.1
vtk output
ASCII
DATASET POLYDATA
POINTS 1300 float
16125 47875 54078.1 17569.2 45157.1 49529.2 18402.7 43858.4 46609.6 
10208.5 39601.9 42994.6 7305.75 34984.4 44281.2 18966.4 41344.6 40598.4 
29089.9 35242.2 44023.4 7916.56 35545.3 43793.7 27315.4 36870.1 43127.7 
30562.5 33953.1 39217.8 7362.67 33907.5 43639.5 28681.4 35801.7 40874 
7528.81 34398.8 43685.8 21338.5 40640.4 35497.4 17929.7 41230.7 30875 
6304.2 30359.8 43481.1 5248.41 24671.9 44023.4 21704.3 40687.1 34221 
22570.3 41231.7 29328.1 5794.15 32286.4 40637.2 4207.87 27507.8 38351.6 
5260.57 33949.4 33695.5 28557.5 35730.5 43754.7 13608.7 40681.1 36176 
30128.2 34347.5 39243.1 32163 32148.4 35257.8 18314.7 41090.1 30901.6 
16382.8 41234.8 27007.8 5732.99 26337.8 44381.7 6070.31 22351.6 47938.1 
29087.6 36334.3 37398.1 30430.5 36531.2 33195.3 4207.87 26476.6 29070.3 
4769.19 31568.9 31601.2 4207.87 29828.1 26492.2 30738.6 33687.8 38047.4 
31651.5 27765.6 38351.6 31406.7 32918.6 35879.9 31135.9 32921.9 31132.8 
22748 41185.1 29666.7 24194.5 41687.5 24945.3 16640.1 41188.2 27098.8 
15093.8 41233.8 22882.8 4370.4 27479.7 29191.7 4736.91 25445.3 24687.5 
29735.3 29850.8 44276.1 29531.2 24414.1 45601.2 31259.1 30384.3 37787.7 
31652.5 28281.2 35257.8 29942 36518.6 33680.4 29531.2 36821 28554.7 
4256.65 26777.5 29106.7 23793.1 41342.4 25678.7 24117.2 40192.2 21078.1 
4468.99 25215.9 29564.4 5444.34 22351.6 26750 5053.6 25663.2 25334.8 
6286.88 23898.4 21851.6 4394.02 29791.5 26674.4 4263.56 28539.1 23398.4 
15727.8 41293 23479.7 16640.6 41745.2 19015.6 29654.5 36730.3 30092.4 
27213 40140.6 27523.4 31339.8 29185.6 35732.1 30626.4 28281.2 30875 
31341.8 28104.7 38226.4 30420.2 23640.6 38867.2 4373.8 29230.1 24148 
4724.53 30343.8 20562.5 15284 41251.6 23061.9 11484.4 40556.2 23398.4 
29512 25847.7 44736.1 28883.6 21062.5 42734.4 6390.21 24105.4 22037.8 
7713.09 23125 19531.2 24085.7 39840.1 21828.4 24375 37620.2 18500 
29318.1 24597.4 45441.5 28067.9 21320.3 47117.2 28820.3 22399.9 44341.3 
28179.3 20031.2 44796.9 30508.5 24550.1 38405.4 29273.4 21527.6 36804.7 
30992.4 32740.5 31764.8 29589 31632.8 26492.2 30954.6 28697.2 33109.3 
29789.1 24622.4 31906.2 5739.28 19257.8 31132.8 29393.6 36690.8 28848.3 
28028.7 36273.4 24171.9 24107.7 40086.6 21303.2 20835.8 40914.1 17726.6 
24195.6 38996.6 20563.6 26456.1 35500 20562.5 5440.63 22619.6 27509.9 
7298.53 18742.2 26750 24062.7 38276.1 19098.6 22695.1 38078.1 16437.5 
5989.26 24572.7 23026.9 6070.31 26686.9 19273.4 16204.1 41525.5 19361.3 
16125 41477.1 15148.4 4775.06 30115.2 21025.3 5761.97 30859.4 16953.1 
4536.53 30466.9 28546.6 4705.97 33179.7 25203.1 28371.6 20741.8 44660.2 
27210.9 17917.2 41960.9 5842.31 19469.1 31019.2 6934.5 16421.9 31648.4 
29923.3 25548.2 31834 28500 23376.6 29070.3 6592.54 20215.6 27038.8 
8216.35 19515.6 23656.2 25778.3 36083.1 20382.3 25974.5 32921.9 19273.4 
7703.4 23267 19847.1 10195.3 22248.4 16953.1 23880.9 40891.8 24523.6 
21023.4 42260.9 21593.8 29354.2 21936.2 37381.3 27468.8 18617.4 37835.9 
23433.6 38185.1 17874.5 23601.6 34468.8 15873.4 7309.46 23518.5 20504.3 
10280.9 20031.2 20046.9 28788.6 20940.6 37517.7 27143.9 19000 33968.8 
9049.08 22717 18284.4 9247.59 24671.9 15406.2 28237 20244.4 44755.8 
26437.5 16084.7 45570.3 15150.8 41239.1 22936.5 12515.6 40198.4 19531.2 
5640.18 30269.3 18053.5 7359.38 28505 14632.8 4808.48 32916.5 25997.6 
5765.06 36531.2 24429.7 5834.77 30908.3 17313.6 6795.28 33695.3 14890.6 
6881.8 16819.5 31808 7994.62 14359.4 32937.5 6778.47 29343.9 15649.6 
7507.87 30085.9 13343.8 5095.47 34000.9 25527.2 5224.69 34468.8 21851.6 
28703.8 24016.2 29419.5 27210.9 23757.2 26234.4 6867.06 33315.2 14953 
7875 34726.6 13036.4 5904.38 36209 24545.5 8051.34 39109.4 23140.6 
27500.3 18925.7 37822.2 25148.4 16339.4 38351.6 25689 33703.5 19300.6 
24425.5 30601.6 16695.3 6918.72 16541.2 31696.3 9164.06 15339.1 28812.5 
26962 19068.3 34415.6 25261.9 17453.1 31906.2 9187.99 24085.4 16269.7 
11226.6 23640.6 13976.9 7699.58 38377.2 23159 9679.69 39473.4 20562.5 
26436.3 16437.3 45302.7 24890.6 13778.8 45312.5 6569.95 17614.4 31571.4 
6328.12 15333.9 36031.2 13299.3 40399.1 20004.6 13031.2 39625 16344.7 
25771.9 17937.7 32659 25406.2 18832.9 29328.1 6662.25 15779.1 34506.4 
8110.12 12812.5 36289.1 6586.55 37032.9 24018.7 6585.94 37096.4 20820.3 
27505.7 23984.2 26697.3 26437.5 24879.2 23398.4 28561.1 23568.5 29175.1 
26695.3 21178 28296.9 7967.5 13696.2 35520.7 10710.9 11708 35257.8 
24521.9 31403 16929.5 22677.6 30343.8 13343.8 6454.45 15310 35908.3 
6585.94 14304.7 38093.8 12697.3 39416.4 16979.9 12000 38446.3 14632.8 
9887.9 12304.5 35336.7 11484.4 11770.9 32937.5 24920.3 14144.8 45129.4 
22121.7 11265.6 44023.4 25515.9 18564.4 30327.4 22897.2 17195.3 28039.1 
12206.7 38462.4 14777.6 11742.2 37118 11796.9 6802.71 37216.7 21319.2 
8132.81 38078.1 18215.4 26884 25006.1 24336.5 26956.2 28023.4 21851.6 
24454.5 30842 16765.6 22828.1 26642.6 15406.2 8281.83 13115.2 36160.6 
9937.5 11250.2 38609.4 22692 30525.8 13482.5 21148.2 30085.9 10765.6 
26951.5 21699 28209.1 24926.7 20289.1 25976.6 6550.46 14295 37882.8 
6585.94 12296.9 40801.8 6816.84 33581.3 14909.3 7101.56 36015.6 16555.1 
23030.2 27717.1 15376.2 21134.8 26218.8 12570.3 26923 26635.5 22994.6 
24952.5 26476.6 19531.2 7923.78 37663 18566.4 8906.25 37580 15921.9 
6890.88 12743.6 39870.3 8852.62 10492.2 41445.3 23381.9 17637.1 28151.6 
21309.1 17710.9 24429.7 23042.6 17327.9 28072.8 21023.4 14864.7 29585.9 
27269.5 24372.5 25800.2 28500 28023.4 24939.1 22822.9 26835.3 15535.4 
22054.7 24104.7 16437.5 21349.2 26762 12746.3 19734.4 26446.7 9992.19 
22007.5 17269 26577.1 20250 16258.9 25718.8 21518.6 17578.3 25073.9 
22484.7 19515.6 23140.6 21019.9 15222.6 29309.4 18703.1 13328.1 30327.4 
21372 17671.2 24623 18960.9 17372.7 22882.8 28218 27869.1 24931 
28547.4 30601.6 24171.9 22452.4 19275 23626.5 24117.2 21532.8 22882.8 
19696.5 17626.9 23130.9 18187.5 18442.1 20304.7 19003.8 13683.6 30309.7 
16382.8 12213.3 32164.1 23329.1 20784.8 22820.2 23601.6 23125 20151 
18793.3 13434.8 30322.1 16125 13270.4 28812.5 28258.9 29534.9 24173.4 
27498.7 31375 21851.6 17378.8 12772.1 31459.4 17929.7 11757.5 35000 
20777.3 16561.9 25976.3 18445.3 14552.2 27265.6 22475 19443.4 23286.4 
21350.3 20289.1 20820.3 21564.3 20209.5 21012.7 20507.8 21213.1 17984.4 
20544.8 21235.3 18061.5 19734.4 22152.5 15664.1 12521.7 41817.2 44171.9 
9353.5 38987.8 41818.7 8888.1 37912.9 42896.9 7457.34 37046.9 41960.9 
25650.3 38505.4 43473.9 26301.4 38078.1 41445.3 26347.7 37946.8 41877.9 
19369.6 40913.5 33822 28759.8 35545 43856.8 30046.9 34293.4 42218.8 
28668.9 36119.8 39618.5 5243.25 28023.4 42218.8 29473.8 33316.4 43607.1 
26695.3 37820.3 37111 4973.48 32781.9 32400.1 4719.37 32921.9 30875 
5383.71 28276.6 42216.7 4719.37 26476.6 40929.7 31335.9 31765.8 40671.9 
30939 33457 37397.2 5231.18 32016.2 39439.8 4523.44 30859.4 37420.3 
4781.25 33255 37320.3 16460 41220.9 27035.1 14578.1 41230.7 27781.2 
4849.21 26673.8 41313.3 4365.66 24414.1 41187.5 22623.6 41217.7 29429.7 
19992.2 41687.5 28633.1 28500 38466.9 32937.5 5743.92 34843.6 35638 
4781.25 33264.2 35515.6 22676.3 41455.6 27279.3 22054.7 41750.4 25976.6 
5893.45 22875.1 46854.6 5727.94 20804.7 47117.2 31936.1 32379.5 35444.4 
31655.6 30601.6 33968.8 24347 40040.1 33374.5 25953.8 40140.6 31906.2 
17142.5 41158.8 28239.6 18703.1 41745.2 25976.6 8164.78 38735.6 32345.6 
4540.97 27753.3 38398.4 4207.87 25703.1 37320.3 31434.7 28003 38263.9 
31273 27250 40156.2 31722.7 31080.7 34114.5 31593.8 30595.4 32164.1 
18761.7 41739.9 26231 20250 42228.9 24945.3 27731.4 38717.2 33202.8 
28500 38973.2 31132.8 5243.25 34984.4 31132.8 4469.81 26989.6 26490 
4265.62 27221.1 24687.5 28456.5 38413 29406.2 27468.8 39816.8 29843.8 
27294.3 39814.6 27542.2 26437.5 40457.2 25976.6 7694.12 38636.3 31677.1 
8390.62 39483.7 29585.9 29818.6 36375.7 31169 30107.7 34726.6 28812.5 
22913.6 41371 22927.9 22875.6 41429.7 21335.9 5443.21 22432 26978 
6070.31 22561.9 24429.7 10968.8 40671.7 25203.1 29934.9 35171.8 29160 
29431.2 34726.6 26750 4816.93 33064.3 31083.9 4781.25 34289.3 28554.7 
27482.8 39561.5 29725.6 25664.1 40700.6 29843.8 30645.2 27752.5 32726.7 
30820.3 25960.9 33922.3 4831.88 25510.7 24881.7 4781.25 26476.6 23367.5 
4726.28 33339 30046.9 4237.78 32664.1 28554.7 29391.8 25072.5 45173.4 
29074.4 25187.5 47632.8 5378.34 21222.2 30333 5809.41 19773.4 29070.3 
30612.9 28213.1 31261.7 29897.3 26992.2 29328.1 6269.96 24245.6 22334.6 
7418.16 21578.1 22367.2 15668.6 41229.1 20149.3 14835.9 40732.6 17468.8 
29545.1 34644.4 27256.3 29273.4 33280.8 25718.8 30807.7 25694 38082.6 
30562.5 23834.5 36546.9 29297.7 21650.2 36977.7 29578.7 22093.8 35773.4 
5212.62 30394 19393.9 5243.25 31632.8 18500 22399.9 40805.6 20020.9 
20813.1 41945.3 19789.1 29246.5 33598.7 25917.3 28556.7 32921.9 24171.9 
28060 36590.2 24861.1 26970.7 37046.9 22625 29471.9 21925.2 36231 
28757.8 21033.6 34742.2 13043 39610.1 16588 14522.4 40398.4 15406.2 
27683.6 36524.8 23908.2 27471.8 35242.2 22367.2 7240.37 19142.4 26670.6 
8648.44 17917.2 25460.9 6151.06 26230.8 19722.6 7298.53 26218.8 17210.9 
23324.6 36950.1 16916.5 22331.1 36531.2 14890.6 29546.7 22043.2 35910.7 
29549.8 22609.4 33968.8 7889.54 38772.6 23149.1 8648.44 39654.9 25203.1 
29845.6 26996.5 29575.6 29099.2 25960.9 28554.7 14203 40223.1 15436.6 
15093.8 40666.6 13343.8 27089.3 19020.5 34102.8 27984.4 20190.1 33453.1 
8851.8 21281.8 20758.8 9421.88 19515.6 21936.1 20982.2 41681.7 19851.6 
18960.9 42260.9 19789.1 27574.8 19299.2 36133.7 26811.8 17968.8 35773.4 
9762.7 20638.9 20136.5 10968.8 20530.4 18500 29438.1 22384.3 34226.6 
28757.8 22093.8 32065.1 9229.75 24495.9 15665.3 8192.62 26218.8 15406.2 
7420.22 15810.9 32018.5 8581.41 14359.4 31132.8 23421.4 35066.5 15945.3 
22848.8 33953.1 14375 28666.9 33212.9 24462.7 28013.2 33695.3 22882.8 
7346.9 28548.7 14799.1 8390.62 27199.5 13859.4 12609.4 40167.4 19552.5 
11226.6 39475.5 18500 28686.7 21932.6 32423.5 27726.6 21186.2 30875 
8447.96 14715.2 31227.6 9867.37 14101.6 30101.6 27299.4 23825.3 26373.3 
[...]
CELL_DATA 1299
SCALARS radius float
LOOKUP_TABLE default
1.16805 1.01186 0.81926 0.0699413 0.705417 0.0718686 0.426519 0.869229 0.062781 
0.370972 0.821106 0.422932 0.663053 0.0715094 0.327113 0.124358 0.574678 0.0523222 
0.290823 0.105077 0.76579 0.468984 0.378043 0.76498 0.0742095 0.450932 0.0517657 
0.270976 0.114774 0.465633 0.0837451 0.0540073 0.760236 0.0510496 0.764299 0.0679526 
0.307213 0.0923114 0.561387 0.0894984 0.437235 0.0551526 0.63773 0.0722767 0.453656 
0.0756054 0.743173 0.0639312 0.45448 0.0788163 0.541945 0.549927 0.0697127 0.538893 
0.0760799 0.457858 0.0792346 0.461002 0.0833591 0.417551 0.0817046 0.397866 0.0940833 
0.511855 0.0652634 0.650762 0.0915306 0.456133 0.0709626 0.37471 0.144204 0.448786 
0.117276 0.390602 0.0886834 0.535245 0.10151 0.273701 0.106804 0.395691 0.073533 
0.645515 0.0648366 0.276125 0.144448 0.5058 0.0947822 0.0738711 0.308839 0.112457 
0.244936 0.142801 0.517571 0.100328 0.341457 0.0777058 0.316916 0.122043 0.448742 
0.113305 0.222011 0.182609 0.4511 0.0878983 0.564642 0.0928417 0.385689 0.111619 
0.477843 0.0675706 0.484155 0.0715354 0.296742 0.163107 0.473001 0.0726592 0.359574 
0.123463 0.549136 0.0926177 0.644901 0.0768131 0.298761 0.0750375 0.389512 0.141849 
0.628587 0.0657092 0.340185 0.118393 0.359246 0.0781575 0.357158 0.0628965 0.442279 
0.0852532 0.431402 0.0817188 0.365238 0.0772231 0.301657 0.0924602 0.335583 0.11263 
0.429964 0.0983514 0.482941 0.0543928 0.342437 0.10553 0.381542 0.0744548 0.285348 
0.0762557 0.471492 0.0821824 0.229843 0.103715 0.606323 0.0511761 0.295937 0.184904 
0.277648 0.160652 0.350015 0.107561 0.475185 0.0783914 0.348203 0.0962033 0.599381 
0.105386 0.430612 0.107862 0.380288 0.102111 0.462302 0.114671 0.24005 0.0872661 
0.30419 0.125229 0.466395 0.0981023 0.367294 0.0890867 0.317166 0.115062 0.253339 
0.195055 0.321763 0.157039 0.593393 0.0735576 0.228869 0.218733 0.322664 0.0949047 
0.373328 0.122763 0.420113 0.0955489 0.228227 0.192778 0.243893 0.160689 0.227809 
0.163999 0.356059 0.119555 0.177863 0.172872 0.397204 0.134391 0.362753 0.0896654 
0.299298 0.101867 0.331149 0.123474 0.589603 0.081283 0.417952 0.09735 0.445755 
0.0738966 0.259819 0.165619 0.31472 0.144974 0.50711 0.0860598 0.484409 0.0800928 
0.412711 0.0805475 0.240941 0.132632 0.320212 0.129763 0.459938 0.112772 0.237817 
0.188754 0.406698 0.100694 0.306721 0.184015 0.269457 0.169623 0.307196 0.115398 
0.332306 0.126306 0.255818 0.167114 0.403718 0.102428 0.379599 0.0713527 0.296015 
0.225224 0.820134 0.771339 0.445564 0.0583195 0.870866 0.0753432 0.154904 0.466795 
0.117646 0.107925 0.470822 0.0613771 0.466503 0.0700578 0.765001 0.0554681 0.237695 
0.103257 0.0778127 0.330222 0.236987 0.0730486 0.129723 0.209179 0.0713805 0.208842 
0.120091 0.166557 0.0630987 0.118201 0.768292 0.0848216 0.554349 0.0715414 0.253017 
0.162023 0.193111 0.0941853 0.211112 0.0603373 0.450332 0.0801733 0.320036 0.21267 
0.14392 0.163031 0.0910634 0.175227 0.130853 0.197799 0.118159 0.171513 0.150279 
0.111524 0.464457 0.0905698 0.301949 0.0721841 0.269422 0.102063 0.301952 0.0640234 
0.45353 0.0557624 0.214984 0.116479 0.231097 0.108858 0.0845604 0.311774 0.0968438 
0.173165 0.124382 0.188525 0.15257 0.488239 0.104352 0.164894 0.0805474 0.156032 
0.123298 0.300828 0.106721 0.481764 0.118647 0.229028 0.0894339 0.411054 0.103461 
0.244521 0.154353 0.298495 0.099837 0.647333 0.112386 0.270737 0.0623582 0.445085 
0.118334 0.233995 0.0973365 0.236348 0.119888 0.298953 0.138211 0.264322 0.100732 
0.255306 0.124471 0.293552 0.0913946 0.265239 0.130953 0.259969 0.136021 0.291812 
0.133284 0.247733 0.0843777 0.241436 0.143666 0.192526 0.124587 0.250669 0.195857 
0.125965 0.119698 0.232734 0.159014 0.199471 0.154692 0.607477 0.108437 0.204764 
0.178957 0.246409 0.098571 0.203177 0.188781 0.248297 0.114503 0.259175 0.10921 
0.230254 0.138157 0.258083 0.0996673 0.217668 0.146265 0.243066 0.114632 0.185987 
0.170222 0.217111 0.130652 0.207035 0.169136 0.276807 0.102036 0.274139 0.11696 
0.227879 0.171445 0.174512 0.154178 0.325632 0.0925019 0.1894 0.178407 0.231629 
0.179553 0.257955 0.07498 0.160314 0.154771 0.307565 0.13258 0.237733 0.169282 
0.171619 0.143311 0.153324 0.146231 0.264781 0.0799236 0.35419 0.12392 0.302208 
0.150641 0.172776 0.167923 0.282545 0.132465 0.287356 0.191193 0.304737 0.176433 
0.356026 0.115862 0.32499 0.125896 0.207594 0.19479 0.290178 0.09354 0.255438 
0.18138 0.214658 0.199126 0.229416 0.0658167 0.223184 0.163766 0.35462 0.116273 
0.397515 0.127662 0.281714 0.175396 0.303714 0.188299 0.149815 0.143886 0.347908 
0.126745 0.225306 0.181826 0.377097 0.0835519 0.258222 0.212412 0.215066 0.335173 
0.0899891 0.162876 0.0941073 0.330846 0.0785124 0.150565 0.181878 0.0848994 0.18546 
0.138313 0.208117 0.0814568 0.200064 0.184454 0.189387 0.112203 0.159321 0.0940037 
0.113786 0.109576 0.145357 0.0973151 0.16805 0.105001 0.148787 0.354847 0.113694 
0.161475 0.110482 0.158997 0.11996 0.255247 0.136357 0.213483 0.157116 0.420655 
0.117824 0.350914 0.0990395 0.301729 0.110237 0.160129 0.153025 0.176561 0.117298 
0.217546 0.127171 0.243039 0.115573 0.295058 0.0878297 0.275494 0.121426 0.169309 
0.162713 0.322441 0.076027 0.222467 0.125979 0.266246 0.0976274 0.260389 0.126471 
0.195481 0.146287 0.180902 0.110066 0.157274 0.138811 0.352139 0.126745 0.116523 
0.216848 0.0813859 0.608341 0.0985538 0.269063 0.094642 0.19784 0.104485 0.272643 
0.132988 0.252587 0.149466 0.229388 0.17281 0.179849 0.14701 0.363533 0.125062 
0.178046 0.148524 0.307993 0.148855 0.215109 0.149652 0.358216 0.259776 0.152915 
0.192953 0.11057 0.604506 0.115674 0.358531 0.121065 0.181023 0.160797 0.187944 
0.178093 0.223796 0.196895 0.204829 0.193909 0.175811 0.162094 0.267649 0.11252 
0.254944 0.160609 0.189636 0.181996 0.204843 0.192836 0.194252 0.147108 0.60309 
0.107509 0.159035 0.140605 0.33992 0.147474 0.317705 0.164697 0.415209 0.0855593 
0.301124 0.132271 0.247269 0.137551 0.1673 0.134854 0.281366 0.217819 0.207344 
0.138031 0.200402 0.178882 0.319219 0.120704 0.179956 0.17454 0.272835 0.23705 
0.206579 0.154081 0.287295 0.159555 0.245731 0.220879 0.255218 0.245196 0.258671 
0.185268 0.289995 0.218022 0.222051 0.214662 0.156637 0.150951 0.20704 0.200469 
0.315804 0.138209 0.223701 0.113622 0.213708 0.202416 0.26042 0.13034 0.205517 
0.197121 0.225261 0.209659 0.277368 0.185902 0.193968 0.190695 0.345412 0.0863042 
0.15265 0.101014 0.134986 0.151154 0.06317 0.247194 0.118767 0.108309 0.224319 
0.11861 0.454983 0.093669 0.261948 0.121112 0.562656 0.556457 0.0688132 0.184875 
0.114884 0.460485 0.0742242 0.124945 0.11756 0.228587 0.176903 0.218504 0.169804 
0.450322 0.0976661 0.203751 0.176277 0.143227 0.126339 0.148342 0.115431 0.180195 
0.168543 0.272287 0.103562 0.201972 0.135861 0.271765 0.106209 0.398253 0.106599 
0.231987 0.131776 0.122863 0.116389 0.1548 0.113962 0.142543 0.120735 0.231336 
0.124819 0.211935 0.139829 0.210793 0.120091 0.233134 0.117729 0.269491 0.103382 
0.313406 0.108056 0.188712 0.106748 0.200493 0.124868 0.17522 0.159349 0.206715 
0.119279 0.170814 0.159443 0.178635 0.139275 0.356719 0.105244 0.346579 0.131266 
0.224446 0.183175 0.216529 0.14044 0.221834 0.160806 0.20544 0.16525 0.267796 
0.121547 0.19376 0.183052 0.202922 0.120942 0.233775 0.155144 0.239991 0.184783 
0.191425 0.149072 0.283481 0.0760777 0.202224 0.176517 0.159212 0.148054 0.15436 
0.141734 0.177754 0.106481 0.311746 0.129066 0.145578 0.594654 0.110122 0.237538 
0.1318 0.155065 0.148657 0.192401 0.16907 0.184501 0.168384 0.164237 0.158854 
0.219517 0.207839 0.128289 0.125515 0.154293 0.144362 0.592283 0.111474 0.25963 
0.133563 0.248059 0.14851 0.206756 0.190143 0.168082 0.134524 0.202369 0.17819 
0.177831 0.155687 0.178816 0.158197 0.509106 0.11563 0.369686 0.140772 0.238483 
0.211153 0.28359 0.183544 0.330747 0.171102 0.22973 0.183283 0.410897 0.128166 
0.463664 0.133576 0.417192 0.13228 0.17572 0.172587 0.402664 0.135228 0.200962 
0.182069 0.196903 0.191755 0.267036 0.123039 0.241937 0.148839 0.1982 0.179151 
0.230828 0.20802 0.331429 0.0796382 0.218751 0.215175 0.428193 0.0971648 0.12474 
0.116932 0.114897 0.214307 0.0765606 0.142837 0.123496 0.13292 0.123849 0.765874 
0.0615229 0.138414 0.124356 0.123483 0.195693 0.126537 0.106093 0.0981905 0.56502 
0.0874643 0.159917 0.148219 0.131129 0.116609 0.111703 0.106944 0.106348 0.132617 
0.136537 0.127269 0.164818 0.125376 0.452461 0.0978099 0.181602 0.149526 0.191428 
0.0999453 0.120786 0.133901 0.145329 0.135838 0.131139 0.323342 0.100866 0.279324 
0.0904535 0.120059 0.239256 0.109492 0.12689 0.651362 0.0913586 0.155644 0.0924963 
0.193307 0.124048 0.155267 0.0744323 0.507047 0.0986396 0.1498 0.136979 0.165642 
0.132082 0.241554 0.0902615 0.190827 0.164375 0.228315 0.117103 0.452397 0.0926035 
0.132249 0.120133 0.303235 0.105207 0.146575 0.14049 0.231355 0.145863 0.130635 
0.127157 0.16341 0.121701 0.388287 0.105296 0.150558 0.12164 0.432819 0.0925946 
0.169565 0.125217 0.181651 0.136228 0.265542 0.0977272 0.19506 0.178524 0.220002 
0.125277 0.185769 0.176277 0.447645 0.115232 0.221728 0.139426 0.199048 0.102374 
0.189318 0.184165 0.267395 0.115704 0.477254 0.112073 0.208092 0.138634 0.201575 
0.187658 0.208136 0.191751 0.190854 0.171054 0.187453 0.0963788 0.194945 0.187207 
0.148326 0.130865 0.240046 0.121589 0.179591 0.169817 0.185144 0.170492 0.21729 
0.186866 0.283124 0.114102 0.138314 0.119224 0.185865 0.164937 0.237913 0.118022 
0.384381 0.1077 0.353639 0.126161 0.190699 0.177404 0.218866 0.198718 0.172982 
0.158326 0.177065 0.0685027 0.175337 0.100823 0.330403 0.140209 0.17178 0.159321 
0.187596 0.15378 0.3661 0.124644 0.208053 0.160762 0.361219 0.125804 0.228563 
0.212605 0.590963 0.112456 0.219896 0.151375 0.210225 0.188411 0.200992 0.183874 
0.201238 0.155204 0.211815 0.0948821 0.20012 0.184746 0.331831 0.112543 0.30633 
0.163336 0.205263 0.19827 0.241154 0.222245 0.327459 0.131618 0.419062 0.126226 
0.187884 0.16445 0.362677 0.145956 0.19916 0.184962 0.256935 0.18769 0.217928 
0.206559 0.268347 0.234524 0.265146 0.19324 1.17046 0.106866 0.21481 0.0995313 
1.17103 0.08973 1.17086 0.0698107 0.205605 0.0778644 0.117314 0.108416 0.197516 
0.0792244 1.01208 0.0881725 0.820334 0.0739049 0.822741 0.0724221 0.193397 0.100478 
0.169549 0.0881577 0.18886 0.105454 0.165025 0.0670887 0.880377 0.0439194 0.707175 
0.0625638 0.17886 0.165695 0.261092 0.0931129 0.156172 0.0717562 0.257083 0.0690089 
0.872655 0.0561006 0.256655 0.0705395 0.151931 0.146397 0.15978 0.0786126 0.254982 
0.0631156 0.772737 0.0828321 0.1188 0.112709 0.15744 0.087056 0.135732 0.124553 
0.253169 0.0515731 0.706056 0.0984408 0.769557 0.0840518 0.184539 0.0784061 0.176209 
0.137005 0.220738 0.0754922 0.142598 0.140313 0.150616 0.14022 0.390442 0.0936947 
0.182576 0.0600446 0.219005 0.0821323 0.76882 0.0977921 0.388636 0.0894349 0.156217 
0.0970593 0.154153 0.128993 0.177623 0.105657 0.215973 0.109856 0.211938 0.13803 
0.145761 0.129714 0.766337 0.0987736 0.148719 0.11204 0.201604 0.177203 0.208664 
0.0840308 0.176176 0.144361 0.116267 0.110216 0.167033 0.104154 0.141668 0.137351 
0.194316 0.100605 0.164175 0.126501 0.22325 0.132272 0.380033 0.0950117 0.159619 
0.143208 0.461686 0.0915013 0.32549 0.0878591 0.762032 0.0821047 0.168717 0.0971908 
0.206555 0.134511 0.145715 0.139766 0.163009 0.150566 0.175306 0.161446 0.261171 
0.100382 0.146941 0.0943654 0.769223 0.0893996 0.146145 0.136939 0.136816 0.132787 
0.256132 0.115191 0.248117 0.116441 0.540267 0.10629 0.462511 0.0988438 0.132031 
0.123621 0.160492 0.143843 0.221835 0.099345 0.235714 0.163423 0.112966 0.105681 
0.199772 0.108355 0.205922 0.190693 0.450615 0.104349 0.141975 0.12844 0.646202 
0.0951058 0.235228 0.100077 0.536793 0.110096 0.177233 0.131244 0.227526 0.205476 
0.164562 0.129976 0.150373 0.13442 0.173785 0.125034 0.474475 0.0997408 0.207967 
0.137219 0.216578 0.10985 0.127919 0.120181 0.214432 0.121655 0.479354 0.101256 
0.160271 0.141866 0.307119 0.102762 0.357767 0.128609 0.191772 0.110586 0.151334 
0.144647 0.176883 0.164623 
