# vtk DataFile Version 4.1
vtk output
ASCII
DATASET POLYDATA
POINTS 1300 float
16125 47875 54078.1 15403.1 46111.5 52453.9 22809.2 41592.4 46664.6 
24198.7 39109.4 39898.4 12341 42324.5 44042 9412.18 38732.7 43774.1 
23451.2 39932.9 41075.6 21539.1 40203.5 35257.8 27555.2 37359.9 44301.7 
7823.75 34990.3 44456.6 6744.23 36219.1 37394.6 4728.66 33437.5 32937.5 
6365.04 32529.5 42255.1 24258.9 39348.9 40029.6 22127.5 40274.3 36034.6 
22054.7 41230.7 29585.9 31400.9 33953.1 36289.1 5436.82 29194.8 41782.1 
5227.78 33750.1 33280.9 4207.87 31375 29070.3 13804.7 41230.7 27781.2 
30197.5 32819.4 43173.5 31851.6 29570.3 39151.8 26259.5 38450.3 37714.9 
26437.5 39824 31906.2 30724.6 33937.7 37403 22514.8 41098.1 29914.6 
23085.9 41757.6 24687.5 22686.1 41295.9 28346.5 18187.5 41745.2 25203.1 
4479.81 31358.5 29868 4207.87 26734.4 26750 14160.1 41233.1 29148.9 
10401.6 40398.4 27781.2 18473.1 41497.6 25235.7 15351.6 41246.1 22625 
5646.88 34636.7 33982.6 4289.45 28121.6 27685.4 4705.97 23898.4 29585.9 
4408.45 27290.4 26796.6 5296.88 24859.6 23140.6 4361.74 29351.6 28514.8 
4265.62 29799.3 22625 31355.3 30545 40358.3 29087.8 23382.8 45312.5 
22621 41220.8 28942.3 26437.5 40523.2 27265.6 23241.3 41188.4 25827.7 
25423.8 39109.4 21593.8 31122.6 30061.8 34923.3 30820.3 26334.2 33453.1 
4580.98 25165.4 29015.8 5812.5 21314.1 26492.2 24419.8 40065.8 23541.4 
22312.5 40914.1 19186.8 30631.6 29312.5 30101.6 29567.3 34726.6 27007.8 
16288 41321.6 23408.2 17414.1 41761.8 18242.2 7506.22 38200.2 32494.9 
7101.56 38129.7 28812.5 5381.85 25273 23646.2 7617.19 23125 19701.4 
23808.5 40000.9 21659.9 24117.2 37966.8 18500 29789.1 22558.8 37578.1 
4761.04 23996.1 29403.4 5554.69 19980.7 30359.4 29396.9 24473.4 44560.5 
28500 19773.4 42482.8 29099.1 23650.2 45326 28042.1 21320.3 48148.4 
15632.5 41268.8 22860 11484.4 40463.4 22882.8 29512.8 35447.1 27975.8 
28040.1 36015.6 24171.9 4701.12 29573.3 23033.7 5236.03 29570.3 19531.2 
25120.3 39051.4 22286.9 26339.5 35757.8 20562.5 30156.8 28558.4 44549.8 
17076.3 41629.8 19792 14320.3 40685.1 16695.3 30721.4 27071.9 33452 
29531.2 24414.1 30610 29829.6 23138.3 37480.3 29049.7 21320.3 35257.8 
4289.45 31370 29309.6 30786.7 29674.6 30862.1 30076.8 31117.2 27523.4 
5804.87 22138.3 26769.5 8132.81 19773.4 23605.7 28840.8 21559.4 43272.3 
27468.8 18148.2 45828.1 5589.44 20405.5 30414.4 6585.94 16908.6 31648.4 
29883.2 30944.3 27725.6 28574.2 32148.4 24429.7 5565.1 20108.1 30375.9 
7507.87 17710.9 27781.2 25846.6 36089.9 20753.4 25972.4 33179.7 19273.4 
7584.49 23668 20122 10055.1 22609.4 16695.3 23729.7 38143.5 18780.6 
23085.9 36273.4 15890.9 5231.08 29167.5 20748.5 6843.75 26683.8 17468.8 
7144.46 38065.6 29052.4 5847.05 28553.3 19187.3 6520.97 29570.3 15921.9 
23132.5 41586.9 25029.6 20765.6 42260.9 21851.6 7607.39 23287.9 19827.6 
10453.1 20031.2 19874.7 29801.2 22732.7 37548.7 27468.8 18617.4 38093.8 
15147.1 40968.5 17624.3 15867.2 40914.1 13829.5 6318.84 29265.2 16901.5 
6328.12 33701.5 15664.1 16034.5 41272.6 18621.4 12515.6 40198.4 19531.2 
28993 21555.5 35819.1 26695.3 18455.5 33710.9 4932.84 34468.8 22625 
29032.7 21390.9 35426.2 28757.8 22064.9 32164.1 6661.53 17313.8 31614.5 
7994.62 14359.4 32937.5 29636 25124.6 30873 27984.4 24363.5 27007.8 
6732.58 27273 17673.2 8541.19 26218.8 14632.8 6925.01 18430.1 28559.6 
8390.62 15736.1 29328.1 27595.2 18611 45029.7 25725.9 14875 45054.7 
9505.92 23309.1 17070 10917.2 23898.4 14117.2 6325.34 32370.6 16035.3 
8028.66 33953.1 12054.7 6581.71 29462.5 16066.8 7806.94 30085.9 12828.1 
25787 33603.2 19384.3 24890.6 30592.3 17210.9 27278.4 19109.7 38000.4 
24960.8 16164.1 38351.6 23204.4 36273.1 16386.8 22691 32664.1 13859.4 
26712 18911.9 33672.6 25148.4 17401.6 32164.1 7594.7 15245.7 32540.6 
6843.75 14527.5 35773.4 11828.1 40346.1 23199.2 8648.44 39474.4 23656.2 
26242.9 18458.8 33220.1 25921.9 19152.6 29843.8 9602.34 39736 23519.1 
7101.56 37617.2 21078.1 26276.5 19187 31223.4 27468.8 21529.7 29328.1 
7874.69 14625.2 32818.4 9937.5 11881.3 35257.8 28084.7 24693.4 27306.2 
26455 24671.9 23656.2 25651.9 15115.9 44904.3 23859.4 12533 44539.1 
24763.1 31125.3 17401.1 23410.8 29054.7 15406.2 14519.4 40569.5 17026.9 
12257.8 38664.9 15148.4 22728.2 32808.3 14249.4 22383.7 30085.9 13085.9 
7475.39 37749.5 21158.7 6293.06 36273.4 19273.4 12681.3 38916.5 15150.3 
10921.3 36789.1 11539.1 9318.64 12704.5 34526 8390.62 12386.6 37835.9 
26028.3 19162.9 30257.6 23343.8 17800.7 27265.6 27111.1 20826.9 29896.7 
25987.9 21320.3 26750 23927.7 12932.4 44714 22054.7 11007.8 44746.3 
26943.9 24678.3 24751.3 26993.3 27507.8 22367.2 23694.3 29276 15944.9 
22828.1 26642.6 15406.2 26978.5 26659 23082.4 25664.1 26377.6 20562.5 
8352.47 12580.6 37267.1 6328.12 13159 40156.2 23226.6 27854 15654.1 
21796.9 27208.8 12828.1 22326.4 30676.6 13111.3 21310.1 29054.7 11023.4 
12384.9 38740.4 15149 8906.25 37820.3 16555.1 8379.18 12444.8 37665.3 
8648.44 11007.8 40624.4 24363.9 18318.3 28402.6 21847.4 15648.4 29328.1 
23394 17897.1 27374.8 21152.3 17195.3 25203.1 25889.3 26575.7 20918 
24738 27250 18242.2 21930.2 27166 13338.5 19992.2 25658.8 11023.4 
22761.8 26815.4 15404.5 21130.7 24156.2 14632.8 22183.5 17518.1 26202.1 
22054.7 18934 23656.2 21859.7 15824.9 29322.6 19734.4 13990.2 30101.6 
28550.1 24822.8 28376.3 28576.3 27765.6 25976.6 21242.5 17308.3 25280.3 
19218.8 17195.3 23257.2 29340.8 31113.2 26374.2 28533 29828.1 24429.7 
19909.2 14230.8 30285.4 17929.7 12752.7 31648.4 22093.3 18509.2 24420 
24117.2 21200.7 23140.6 19891 17436 23588 18960.9 18631.8 20562.5 
28667.2 30386.2 24749.3 27471.8 30601.6 21851.6 25731.6 26437 20669.2 
23744.9 23125 20304.7 19315.3 13787.3 30694.3 16125 13252.8 29070.3 
18051.1 12887.8 31643.5 16125 11722.5 33453.1 17165.1 12351.7 32475.9 
17992.6 11781.2 35000 18103 13584.3 30077.2 17671.9 14504.8 27007.8 
22074.4 18943.2 23701 22054.7 20546.9 21193.6 21843.4 20150 21558.2 
20507.8 20804.7 18962 20790.8 20855.1 19085.9 19992.2 21732.8 16437.5 
20592.7 20819.8 18999.2 17929.7 19708.5 17984.4 21828.7 40117.8 38439.7 
7359.38 30601.6 47711.2 18960.9 40719.2 33710.9 30038.3 34897.9 38607.9 
5387.11 34087 33547.6 4705.97 31632.8 34742.2 18937.6 40822.6 33848.1 
17929.7 41230.7 32164.1 18471.4 41055.2 32563.4 22777.6 40506.7 33562.6 
24117.2 40398.4 32451.8 16898.4 41230.7 28812.5 30679.9 30366.7 43623.8 
31123.5 28539.1 42734.4 6128.06 23125 47375 31207.9 32506.5 36061.7 
32109.4 32148.4 34738.1 26839.3 39167.1 33604.9 28050.4 38851.6 32164.1 
17118.3 41388.5 24102.6 15093.8 41230.7 24945.3 4356.79 27093.1 28491.2 
4207.87 26476.6 30875 6066.08 23555.7 46972.4 5812.5 23640.6 49570.5 
31650.1 29658.8 39389.8 31281.5 29704.8 33237.2 31593.8 31632.8 32086.7 
19912 41526.1 27239.2 18187.5 41743.2 27265.6 4948.21 24257.3 28341.9 
4736.91 24414.1 26234.4 29081.8 37497.1 31823.3 31593.8 26987 35773.4 
23314 41227.9 26657.9 25148.4 41201.8 25460.9 11207 40523.4 28331 
8906.25 39681.7 29070.3 10711.3 40430.3 27809 9679.69 40170.5 25976.6 
28516.1 38666.4 30610.2 27275.9 40140.6 29328.1 5170.65 25553.1 24570.4 
5750.62 23382.8 24171.9 31018.3 29494.9 32111.3 30638.8 28281.2 31132.8 
4820.02 26352.2 25594.5 4722.47 27250 23398.4 21079.9 42077.6 22745.7 
18445.3 42251.6 22109.4 10236.7 40310.8 26966.1 11226.6 40704.7 25203.1 
29464.5 36086 28834.2 30410.9 33953.1 29070.3 30036.2 34591.3 28807.2 
30100.5 33179.7 27781.2 4822.71 26899.3 23738.7 5250.47 26476.6 21593.8 
25954.7 40228.9 27595.9 27984.4 38874.2 27007.8 5738.56 23824.4 24062.9 
6782.91 22351.6 22625 4497.97 32496.9 27954.7 4727.62 33953.1 27523.4 
22737.5 40405.2 19569.3 22120.7 40140.6 17726.6 30666.7 28500.7 31180.4 
30105.7 27507.8 29585.9 29776.6 26119.6 44729.4 29575.6 25187.5 46085.9 
5810.23 21561.4 26575.4 6473.53 19773.4 27265.6 22319.8 40726.8 19285.7 
20816.2 41429.7 18500 29543.2 34763 27202.2 29531.2 33185.9 25976.6 
6754.55 22461.9 22925.2 7875 21062.5 22053.7 22485 40044.6 18410.7 
22828.1 38642.2 16953.1 6175.4 24994.1 21648.2 6328.12 25652.6 19531.2 
6853.65 20692 25643.8 7555.31 19000 25460.9 28001.1 36047 24321 
27210.9 36374.5 22625 28337.9 19984 42589.3 27531.7 18484.4 41960.9 
8560.06 23141.1 18887.2 9421.88 22093.8 18327.8 28770.8 32121.6 24873.6 
28500 33953.1 23850.1 6320.8 30196.8 16641.6 5554.69 31632.8 17933.8 
7336.59 38313.5 27329.2 8132.81 39160.9 25976.6 29183.8 24789 29982.6 
28500 23309.6 29328.1 7545.31 19348.6 25438.1 8837.16 18226.6 24945.3 
26191.7 35857.4 20619.8 27317.2 33953.1 21593.8 6439.6 25284.8 20091.7 
7505.81 24671.9 18242.2 8086.71 19980.9 23676.6 8906.25 19633.2 22367.2 
23516.1 36681.6 17267.8 24117.2 34515.2 16695.3 7329.57 25006.9 18385.1 
8025.56 24929.7 16953.1 21154.9 41300.1 18883.3 19476.6 42260.9 19273.4 
28028 19897.7 37259 27321.3 18484.4 36546.9 15651.2 40930.4 14968 
14062.5 39904.5 13601.6 23038.1 36277.3 15967.7 22312.5 36302.3 14632.8 
7275.12 26956.8 16761.1 7342.88 28023.4 15148.4 5554.69 36066.2 25203.1 
27368.2 18721.6 36594.8 26293.1 17453.1 35515.6 26614.5 21288.6 28139.2 
27014 22609.4 27007.8 26305.1 17794.5 37749.8 25788.8 16937.5 36804.7 
7377.01 15966.2 31945.3 8906.25 14039.7 31132.8 8677.93 38974.7 22828.8 
7101.56 38129.7 23140.6 28707.3 22040.3 32199.4 28500 22343.3 30617.2 
11587.5 40428.2 22977.7 9937.5 39670.4 20820.3 26234 21453.6 27085.2 
26179.7 22351.6 25671.3 8637.71 14559.6 31135.6 9937.5 14038.7 29585.9 
13670.4 39945.7 16509.9 12000 39302.2 16953.1 7263.78 29472.2 14515.9 
8390.62 27972.9 13085.9 7670.3 17349.4 28562.1 9421.88 15906.2 27095.5 
7770.74 29762.8 13124.6 8906.25 29312.5 10726.4 9443.64 14236.7 30174.8 
9421.88 15006 28812.5 23200 41339.8 25524.4 20765.6 42251.6 24945.3 
7691.64 33798.1 13201.6 8906.25 35898.1 12570.3 25241.7 16442.4 38405.7 
24375 15008 39898.4 25722 17881.5 32967.6 24632.8 16374.4 33453.1 
9122.91 13093.8 33950.8 10705.8 11781.2 33710.9 25214.2 17504.6 32228.7 
24184.2 16937.5 30617.2 7745.17 12754.1 38133.9 6454.97 14359.4 38093.8 
9937.5 12075.7 35073.9 11484.4 11212 35773.4 8048.46 38303.6 21540.7 
7875 37944.1 18757.8 27012.2 17562.4 44992.1 26467.4 16164.1 47117.2 
[...]
CELL_DATA 1299
SCALARS radius float
LOOKUP_TABLE default
1.16681 1.00189 0.059425 0.821558 0.797085 0.774547 0.082547 0.81205 0.375959 
0.762411 0.0782663 0.360366 0.392367 0.729011 0.0756218 0.0755219 0.299815 0.737834 
0.0643088 0.115207 0.729048 0.0697421 0.391912 0.128581 0.518817 0.728084 0.0733016 
0.719196 0.0731816 0.73754 0.0819524 0.304485 0.0937429 0.527602 0.0655097 0.742705 
0.657422 0.0655511 0.463279 0.0902718 0.726973 0.0874456 0.669103 0.0541024 0.727812 
0.0752723 0.602251 0.0706226 0.515004 0.08988 0.56543 0.08138 0.57835 0.0784253 
0.0964581 0.0824924 0.519328 0.0828893 0.314991 0.075087 0.404794 0.0782958 0.431887 
0.0869615 0.0595512 0.525706 0.0614619 0.424665 0.0832996 0.213369 0.120622 0.389023 
0.0683746 0.31331 0.0865667 0.459023 0.108344 0.482073 0.0703489 0.435708 0.431311 
0.0911915 0.431798 0.0965266 0.664449 0.0626456 0.251 0.339556 0.0672491 0.318028 
0.0780834 0.399664 0.107031 0.524233 0.0860627 0.333803 0.111986 0.266251 0.0933998 
0.471388 0.0763685 0.359439 0.131016 0.405493 0.0679096 0.449973 0.0760861 0.28265 
0.447869 0.0759252 0.260686 0.0708833 0.248081 0.161239 0.321078 0.0906455 0.39144 
0.14286 0.421038 0.118701 0.422044 0.0796198 0.636551 0.0800357 0.121591 0.196474 
0.0719907 0.495142 0.085677 0.424157 0.0764424 0.239671 0.164881 0.265155 0.144818 
0.374521 0.0698873 0.300783 0.1252 0.339656 0.153694 0.31353 0.112036 0.467274 
0.0979058 0.297213 0.0727878 0.348288 0.081653 0.626622 0.0687231 0.468651 0.136256 
0.378565 0.114287 0.626187 0.082385 0.364429 0.106521 0.614233 0.109031 0.453305 
0.0976192 0.375194 0.0735848 0.354973 0.11677 0.459114 0.0778348 0.369171 0.0807926 
0.329239 0.132748 0.313702 0.0978368 0.336443 0.186993 0.439075 0.0900374 0.591852 
0.0679889 0.284037 0.0648736 0.305265 0.147654 0.369682 0.083423 0.45431 0.064855 
0.34974 0.0957807 0.409651 0.164151 0.440736 0.0999111 0.259531 0.164442 0.29825 
0.126682 0.31943 0.115777 0.588781 0.0745354 0.494104 0.056627 0.318704 0.191135 
0.323478 0.152419 0.352181 0.135721 0.491965 0.0572964 0.405148 0.0955041 0.408267 
0.0736002 0.346478 0.0726131 0.327262 0.0790981 0.400346 0.0679188 0.420328 0.121401 
0.330681 0.14646 0.276149 0.125507 0.225825 0.219929 0.398526 0.169272 0.36192 
0.0640663 0.311583 0.151961 0.251398 0.186015 0.380852 0.0897564 0.380419 0.0855649 
0.333159 0.147987 0.246324 0.207802 0.738914 0.106626 0.0488672 0.522114 0.740363 
0.104865 0.228143 0.0976069 0.215842 0.728658 0.097 0.108336 0.4423 0.087259 
0.0872666 0.516276 0.1005 0.162471 0.129323 0.526009 0.0847091 0.569502 0.116409 
0.267181 0.167564 0.165818 0.380612 0.0940174 0.530705 0.0815729 0.328615 0.09702 
0.36667 0.135702 0.604437 0.105095 0.298885 0.128877 0.269913 0.138975 0.233944 
0.117395 0.44447 0.0537603 0.363977 0.0742214 0.462423 0.0738452 0.246628 0.100544 
0.249849 0.0968814 0.328548 0.11863 0.167616 0.144858 0.222903 0.105889 0.238289 
0.0928585 0.277971 0.073192 0.196104 0.108294 0.235516 0.115892 0.197708 0.101668 
0.429545 0.0750153 0.181783 0.113882 0.183695 0.115721 0.185706 0.14552 0.236546 
0.100149 0.190054 0.148305 0.403292 0.0847376 0.292615 0.0884688 0.282169 0.0789284 
0.203999 0.0633878 0.309091 0.132343 0.240963 0.141447 0.352548 0.137111 0.280873 
0.11432 0.422484 0.104212 0.203727 0.163887 0.13957 0.133338 0.261833 0.105672 
0.24194 0.131624 0.392692 0.0755534 0.23573 0.113005 0.178801 0.160914 0.317049 
0.0833513 0.198686 0.17017 0.142784 0.137468 0.200749 0.153373 0.102307 0.177743 
0.139594 0.278577 0.100291 0.294375 0.1233 0.494273 0.109443 0.360643 0.127918 
0.164802 0.160089 0.180224 0.140395 0.228316 0.153449 0.261211 0.0982751 0.356507 
0.129523 0.312038 0.0829104 0.221758 0.161424 0.251408 0.169403 0.243714 0.157263 
0.275868 0.0923115 0.304231 0.15393 0.279142 0.0630332 0.235042 0.104407 0.44946 
0.122747 0.194697 0.102476 0.302851 0.147549 0.232918 0.154075 0.339602 0.161979 
0.366854 0.143167 0.344732 0.124945 0.296337 0.138147 0.218335 0.170625 0.29946 
0.152558 0.437045 0.0757697 0.263555 0.0968374 0.232004 0.200537 0.17496 0.169396 
0.209982 0.165698 0.289415 0.146146 0.306065 0.19355 0.30142 0.221205 0.325298 
0.163216 0.296261 0.120172 0.247145 0.0904153 0.175806 0.138799 0.204971 0.156954 
0.257916 0.0860647 0.241356 0.159059 0.208505 0.162326 0.250416 0.115418 0.358277 
0.161948 0.246397 0.225391 0.220814 0.196824 0.160099 0.142463 0.122072 0.119403 
0.16064 0.072429 0.10342 0.669657 0.090657 0.531771 0.0966447 0.190049 0.177505 
0.0984068 0.151798 0.137619 0.127314 0.243108 0.138379 0.249585 0.0907974 0.190545 
0.0996482 0.200048 0.0717681 0.582303 0.0801848 0.464248 0.0673605 0.0858626 0.188492 
0.125896 0.208541 0.11028 0.211347 0.0799991 0.158661 0.0884777 0.150617 0.0697882 
0.198596 0.140792 0.167525 0.110732 0.19851 0.139814 0.161299 0.0956312 0.457962 
0.0770875 0.245416 0.115615 0.17031 0.0960975 0.151342 0.145406 0.477122 0.101966 
0.149826 0.139766 0.164874 0.153183 0.223972 0.129565 0.176257 0.132049 0.176703 
0.155532 0.176176 0.158623 0.192995 0.125513 0.382706 0.121635 0.404155 0.0936783 
0.194158 0.127286 0.197784 0.111483 0.174682 0.106971 0.279426 0.152136 0.228428 
0.153953 0.190582 0.176909 0.182359 0.129768 0.188511 0.154134 0.628328 0.101588 
0.202335 0.159943 0.263503 0.174199 0.277892 0.169054 0.233325 0.15431 0.184382 
0.161421 0.498483 0.135248 0.248882 0.0951802 0.340098 0.119704 0.213394 0.136592 
0.324257 0.122251 0.208224 0.159316 0.290123 0.114594 0.214071 0.207606 0.261469 
0.125706 0.255241 0.18899 0.21388 0.144811 0.188962 0.161566 0.239307 0.183381 
0.243761 0.174957 0.219575 0.148547 0.243805 0.158538 0.27346 0.140261 0.197569 
0.138185 0.31846 0.156739 0.41604 0.14838 0.156996 0.15034 0.227056 0.147561 
0.256965 0.148321 0.339797 0.100172 0.303945 0.133358 0.20243 0.159336 0.219655 
0.201868 0.286982 0.210914 0.317027 0.164828 0.408931 0.123424 0.25654 0.190422 
0.404306 0.12435 0.27772 0.162882 0.261487 0.23845 0.457625 0.127387 0.16804 
0.163393 0.269367 0.121908 0.206287 0.190989 0.256336 0.162908 0.302018 0.134597 
0.248204 0.19796 0.13009 0.120648 0.244747 0.103925 0.280344 0.173785 0.256037 
0.238366 0.731592 0.0536594 0.308287 0.077878 0.138885 0.101785 0.194081 0.166038 
0.443437 0.0874448 0.169478 0.136893 0.605164 0.0927413 0.20617 0.182853 0.567876 
0.104574 0.566692 0.106646 0.148565 0.135584 0.141308 0.0828969 0.149187 0.134019 
0.158965 0.144665 0.13645 0.125377 0.131911 0.123175 0.403768 0.0915907 0.151517 
0.140708 0.234605 0.175131 0.527132 0.0977573 0.171693 0.116939 0.145252 0.13967 
0.138743 0.131011 0.159244 0.146801 0.377232 0.104748 0.165659 0.147183 0.232614 
0.157961 0.213774 0.155043 0.196101 0.187879 0.427833 0.100887 0.50026 0.109963 
0.170701 0.155362 0.320394 0.100641 0.235194 0.179027 0.630249 0.0946958 0.367307 
0.127958 0.19374 0.189271 0.245454 0.107352 0.192817 0.122503 0.17141 0.132307 
0.186669 0.173992 0.463889 0.0977076 0.194328 0.0850098 0.292257 0.151875 0.21881 
0.189706 0.247695 0.13562 0.205239 0.179828 0.286981 0.123515 0.21395 0.17976 
0.452282 0.119848 0.196695 0.142411 0.153695 0.148048 0.29055 0.159773 0.262656 
0.142333 0.16749 0.160423 0.177628 0.112141 0.1918 0.127875 0.591319 0.0786461 
0.221257 0.196776 0.247911 0.159992 0.226063 0.171162 0.170595 0.157253 0.309553 
0.153818 0.256853 0.164579 0.347411 0.139195 0.215291 0.199547 0.267883 0.171387 
0.203077 0.185899 0.242457 0.220374 0.247396 0.220324 0.205999 0.193006 0.216735 
0.18001 0.26516 0.198485 0.275256 0.188696 0.207899 0.164316 0.23915 0.147399 
0.447973 0.131129 0.266932 0.0797723 0.232203 0.17389 0.23065 0.202032 0.202807 
0.159586 0.196029 0.193721 0.239432 0.230136 0.240563 0.169042 0.346889 0.168251 
0.286239 0.102758 0.117553 0.188351 0.077189 0.72772 0.105813 0.182587 0.127446 
0.179315 0.130294 0.129712 0.12335 0.483306 0.0951659 0.171474 0.159076 0.433012 
0.0984027 0.126306 0.525366 0.097833 0.296852 0.103358 0.28752 0.105891 0.208471 
0.123237 0.402191 0.106809 0.11772 0.430496 0.11373 0.425955 0.0991394 0.165468 
0.149528 0.142561 0.122476 0.216567 0.118589 0.255091 0.134575 0.21301 0.122128 
0.638454 0.0920666 0.142223 0.131393 0.247024 0.125453 0.176081 0.134918 0.166758 
0.12969 0.472841 0.0990341 0.17839 0.113816 0.152602 0.147116 0.19926 0.154388 
0.345495 0.127158 0.26609 0.148025 0.170225 0.140056 0.410841 0.109016 0.627442 
0.0988804 0.214073 0.196005 0.15128 0.142484 0.175966 0.149711 0.177646 0.165527 
0.204269 0.164846 0.184412 0.164775 0.258739 0.0997869 0.205739 0.183314 0.253694 
0.109879 0.3461 0.13184 0.208996 0.1622 0.164683 0.145118 0.173082 0.144421 
0.171776 0.168899 0.197834 0.153136 0.183206 0.162611 0.256127 0.24126 0.189447 
0.180317 0.335082 0.124587 0.202376 0.157657 0.16349 0.160011 0.175881 0.169388 
0.253396 0.17253 0.426308 0.0816449 0.199762 0.176211 0.208924 0.194728 0.218803 
0.145661 0.247898 0.115891 0.170539 0.16451 0.193651 0.18781 0.20003 0.177212 
0.222657 0.166334 0.233916 0.199739 0.242834 0.174857 1.16789 0.0938241 1.16769 
0.0685058 0.827425 0.0850209 0.152814 0.103008 0.14808 0.129147 1.00701 0.0587913 
1.00731 0.0964393 0.228478 0.061019 0.827125 0.0432962 1.00308 0.0552342 0.171282 
0.101475 0.227173 0.0690353 0.158477 0.0828806 1.00215 0.0919707 0.14067 0.0931899 
0.137773 0.121775 0.225696 0.0760765 0.82467 0.0741154 0.157392 0.0912581 0.184925 
0.0801882 0.77636 0.0696119 0.223522 0.0659807 0.149325 0.13697 0.115777 0.106694 
0.180868 0.0877419 0.776826 0.0944718 0.220545 0.0980128 0.175454 0.129453 0.775501 
0.0637634 0.380783 0.0744055 0.181019 0.135811 0.178049 0.146425 0.763752 0.0938959 
0.119799 0.113447 0.812769 0.063639 0.766996 0.053454 0.168635 0.156786 0.112489 
0.105243 0.739415 0.0936099 0.127483 0.118403 0.363663 0.0671408 0.366021 0.0613805 
0.159286 0.0997632 0.178638 0.054338 0.177028 0.112611 0.160309 0.100479 0.527884 
0.0561364 0.130805 0.126135 0.160454 0.105672 0.155206 0.140031 0.1582 0.143336 
0.523997 0.0848338 0.311592 0.0932704 0.350247 0.0598524 0.729605 0.0961381 0.523255 
0.0977835 0.147751 0.0992727 0.144999 0.127449 0.143435 0.0755425 0.308781 0.106612 
0.233393 0.0902092 0.132947 0.123366 0.281754 0.112536 0.259617 0.0778296 0.140887 
0.13324 0.353177 0.102837 0.190967 0.0895807 0.382374 0.10416 0.178934 0.117846 
0.144099 0.137721 0.275638 0.123184 0.195079 0.113532 0.164843 0.14448 0.184007 
0.103357 0.208972 0.131257 0.126869 0.117235 0.179143 0.0882288 0.37978 0.0706782 
0.190859 0.135234 0.176888 0.118105 0.176639 0.163954 0.167812 0.136733 0.169245 
0.147368 0.763279 0.0715826 0.114881 0.10475 0.2393 0.17031 0.176296 0.0726463 
0.215977 0.0802975 0.174012 0.153721 0.172425 0.12963 0.156209 0.0930327 0.143387 
0.13688 0.207764 0.15884 0.322311 0.0592095 0.130644 0.126458 0.203686 0.164396 
0.146548 0.132801 0.161599 0.11984 0.331696 0.100965 0.460848 0.105026 0.665691 
0.0944396 0.13365 0.107044 0.433486 0.098232 0.135082 0.127285 0.405892 0.101456 
0.185545 0.163995 0.191623 0.1698 0.290721 0.0929369 0.1569 0.122705 0.204962 
0.12419 0.36252 0.106399 0.188472 0.129353 0.407152 0.0936719 0.180114 0.140298 
0.289849 0.123528 0.128944 0.122533 0.174443 0.12696 0.665057 0.0930517 0.314712 
0.117933 0.159448 0.149797 0.193608 0.114255 0.151256 0.122297 0.132397 0.11549 
0.423711 0.112686 0.16326 0.157075 0.161907 0.129049 0.336941 0.101928 0.131655 
0.112736 0.182138 0.171428 0.258936 0.124823 0.161746 0.158434 0.173652 0.155528 
0.168649 0.148921 0.131886 0.122701 0.371584 0.124597 0.172032 0.150647 0.141987 
0.131001 0.145039 0.128428 0.359437 0.119553 0.614948 0.0932396 0.18105 0.160151 
0.244776 0.199295 0.254643 0.126745 0.176882 0.140388 0.227137 0.177065 0.333273 
0.133294 0.326009 0.132978 0.160722 0.155407 0.212806 0.18527 0.13839 0.129346 
0.216644 0.182443 0.19461 0.167884 0.342353 0.126881 0.2004 0.169096 0.175284 
0.16362 0.493675 0.107596 0.242096 0.226063 0.444196 0.126668 0.191888 0.161051 
0.172997 0.161088 0.223302 0.20011 0.147589 0.13874 0.241794 0.192683 0.173826 
0.137122 0.215991 0.191165 
