# vtk DataFile Version 4.1
vtk output
ASCII
DATASET POLYDATA
POINTS 1300 float
16125 47875 54078.1 15403.1 46111.5 52453.9 18196.3 44161.6 47872.3 
22641.1 41624.9 46664.6 11940.3 41869.7 43114.1 9973.2 39717.1 42056.1 
8445.59 37287.5 42948.1 27561.7 37308.9 44793.7 6969.15 36625.5 36951.3 
14738.9 41231.7 37624.7 6019.58 32591.3 41614.7 5239.12 27507.8 42218.8 
28261 36668.2 40787.1 28102.7 36752.8 40165 8591.31 38295 39707.9 
5592.53 28853.9 42553.1 5812.5 24414.1 46116.9 4207.87 29570.3 31906.2 
4527.87 30871.9 32634.3 4207.87 30601.6 28554.7 29946.6 33753.7 43020.5 
30562.5 28532.9 45054.7 30429 32991 42639.8 32109.4 29506.4 38609.4 
27991.4 37388.7 37388.7 5743.3 24541.2 45758.2 5753.72 21062.5 47890.6 
31459.3 30879.3 39406.4 31667 30601.6 34226.6 22828.1 41945.3 24529.7 
4303.89 30682.7 29778.6 4523.44 25673.2 26492.2 14280.4 41230.8 28307.9 
14835.9 41230.7 22882.8 30148.8 29155.1 44187.2 29789.1 24788.4 44281.2 
9371.34 39882.8 28812.5 4357.82 28410.5 28972.6 4265.62 24114 30359.4 
4256.86 30570.7 28673.6 4207.87 30085.9 24945.3 31914.4 29918.3 38848.5 
31078.1 25703.1 40185.1 29897.3 36015.6 29070.3 29633 36622.7 31911.4 
22787.1 41439.4 25638.8 24632.8 39882.8 21544.3 12071.2 40678 27792 
9371.34 39882.8 25203.1 4726.28 26601.8 26800.8 6480.75 23898.4 21078.1 
4367.92 29952.3 25199.9 4723.5 29054.7 21593.8 15163.5 41374.7 23536 
16640.6 41745.2 19015.6 4424.85 30784.9 31320.7 4584.28 25951.8 26584.8 
6070.31 21578.1 25835.3 5386.7 23590 26180 5296.88 21062.5 29267.3 
31604.7 30684.9 35780.5 30605.8 25703.1 32679.7 31167.4 26480.3 39531.4 
30103.6 23125 38093.8 29690.3 25867.3 44681.5 28184.4 21578.1 47375 
23990.1 40122.6 22169.6 23601.6 38593.8 18114.3 29118.1 24237.4 45705 
28529.9 20289.1 43507.8 30905.5 27197.7 33609.9 30106.7 27250 29843.8 
29778.5 35890.8 29476.5 29558.1 33953.1 26492.2 29624.2 34534.4 27387.5 
28040.1 36015.6 24171.9 6839.11 24249.3 21654.9 8545.31 22867.2 18500 
28642 35452.8 25393.8 26970.7 39367.2 25460.9 4701.74 29513.6 22134.3 
5253.56 30601.6 18500 28220.7 35846.8 24538.5 26440.6 35242.2 20304.7 
29974.6 27905.7 44375 15951.4 41486.9 19451.5 15867.2 41246.1 15406.2 
29588.5 34220.5 26904 29895.3 30343.8 27265.6 5429.39 21307.6 28767.1 
6070.31 17938.8 31648.4 23533 40623 23487.9 21539.1 41747.3 20046.9 
6083.72 21785.5 26047.9 7875 18029.6 26492.2 30166.3 23632.9 38084.9 
28500 20281.8 35257.8 5812.5 36868.5 26750 28301.8 20572.5 43674.2 
27210.9 17917.2 42218.8 6074.34 21640.3 25899.1 8390.62 19659 23140.6 
30474.1 27225.9 31576.2 28568.1 23640.6 29585.9 7873.56 20335.1 23524.5 
9164.06 20667.5 20562.5 23653.7 38433.3 18851.8 23343.8 36273.4 16113.7 
4911.39 29927 20753.3 6843.75 26683.8 17468.8 14934.2 41273.9 23078.8 
12966.3 40398.4 20304.7 5693.7 29001.4 19154 6772.6 29570.3 15664.1 
4307.91 30286.3 27075.7 4719.37 33437.5 24687.5 8287.5 23420.8 18882.6 
9994.22 24156.2 15148.4 26848.6 34972.3 21245.4 25921.9 32148.4 18858.9 
6276.36 29308.6 17269.4 6326.06 33695.3 15664.1 6144.25 18383.4 30978.8 
7834.78 14617.2 32421.9 29133.2 21555.2 36332.1 26953.1 18101.8 38093.8 
9104.36 20481.5 21181.8 11226.6 19979.7 19273.4 27538.2 18713.8 42655.4 
25994.1 15648.4 45054.7 6621.72 27502.1 17713.8 8132.81 26734.4 15006.1 
6764.96 29535.8 15772.7 7674.94 29828.1 13343.8 4749.38 32956.6 24729.8 
5296.88 35321.6 22109.4 28462.3 20541.7 35394.9 26285.9 18226.6 32937.5 
6486.42 31156.6 15929.3 6984 32148.4 13859.4 28792.8 24464.3 29618 
26497.3 22609.4 25976.6 6970.7 32162.2 14432.9 8132.81 34726.6 12780.7 
23363.2 36423.5 16609.6 22884.8 33179.7 14375 26918.5 18388 37743.1 
24960.8 16164.1 38351.6 10359.5 40133.4 25640 9679.69 39684.8 21851.6 
26996.7 19145.1 33424.1 25921.9 19000 30269.7 7734.96 18445.8 26855.3 
9421.88 15223.6 28296.9 25783.3 32320.9 18933 24632.8 30343.8 17077.9 
6921.92 16650.9 31642.6 6328.12 15390.6 35948.8 24763 30877.6 17227.4 
23343.8 30343.8 14567.8 7809.62 14959.2 32474 9937.5 11975.1 34742.2 
22473.1 41350 27002.8 26316.5 18406.3 33113.5 23915.1 16164.1 32421.9 
13362.3 40456.8 20512.3 12000 39126.9 16437.5 26138.8 16079.1 44370.8 
24050.2 12812.5 44796.9 27075.7 23491.7 26492.1 25939.4 23640.6 23656.2 
5414.75 34996.8 22456 7194.38 37562.5 19531.2 8958.74 13347.7 33698.8 
8005.97 12812.5 37320.3 8143.85 34339.1 13161.2 10453.1 36904.6 12312.5 
6500.34 15365.9 35709.2 6328.12 14461.5 38351.6 9252.34 12935.9 34011.8 
11453.4 11781.2 32937.5 25937.1 18788.8 31133.6 23343.8 17128.3 28554.7 
26037.5 15777.7 44849.5 26467.4 16164.1 47632.8 24011.5 13019 44766.8 
22121.7 10750 45054.7 26280.3 23595.9 24507 26953.1 28013.1 21851.6 
24223.7 30674.7 16216.7 22851.8 26734.4 15406.2 26576.6 22734.5 26275.6 
24956.6 20289.1 26234.4 23414.8 30495.7 14684.8 21651.5 30601.6 11281.2 
23740.5 17661.1 28658.1 21796.9 17133.4 25976.6 6410.73 14438.7 37956.6 
6585.94 12554.7 40626.5 23263.4 27916.5 15649.4 21362.7 26992.2 12570.3 
26277.1 25155.8 23129.5 24959.7 26218.8 19789.1 12408.7 39525.9 17659.9 
9164.06 38148.2 17210.9 6871.49 13100.9 39520.9 9164.06 10669.6 40929.7 
23462.8 17288.1 28585.7 21281.2 15066.8 29585.9 22975.3 27089 15479.2 
22828.1 24363.5 17210.9 29592.6 31411.9 26804 28500 28281.2 24872.1 
21435.1 27214 12646 19992.2 26992.2 10201.5 21384.4 27058.7 12593 
20250 23805.6 13601.6 8981.53 35483.1 13138.1 9673.5 37562.5 14632.8 
22380 17291.7 26781 22358.9 19257.8 23398.4 21769.4 17186.7 26091 
19476.6 16937.5 23863.5 21257.5 15287.9 29482.4 18703.1 13317.8 30359.4 
22538.6 18871.3 24341.6 23601.6 20289.1 23611.9 19987.3 17169.7 24111.1 
18703.1 18115.2 21335.9 26915 27602.9 22341 27984.4 30593.3 22882.8 
18798.6 13650 30295.3 16125 12252.5 31132.8 26041.7 23627.2 23911.5 
23859.4 22554.7 21078.1 19519.2 14309.3 29702.1 16393.1 13328.1 28554.7 
17996.5 13230.8 30546.6 17671.9 12039.1 34084.2 23933.5 22683 21252.8 
22253.7 22093.8 19273.4 20318.8 14759.4 29601 18546.4 14617.2 27265.6 
22285.3 19175.5 23479.2 21281.2 19857 21078.1 22378.8 22036.3 19699.6 
19907.6 20546.9 18500 21242.1 21351.2 19147.8 20250 22210.3 16179.7 
15850.7 47204.9 53460.9 13988.3 43909 47156.8 20157.1 43227.7 47140 
20763.9 42244 44926.1 14571 43627.5 45187.7 21957.9 40188.1 37713.3 
20507.8 40210.8 36546.9 15526.4 41226.4 37234.6 7715.36 37393.5 38219.4 
20827.1 40275.1 36609.1 19992.2 40714 34742.2 29464.2 34516.5 43401.4 
19965.2 40666.7 34996.1 18703.1 41171.9 32981.8 14506.8 41201.9 35667.6 
26437.5 37936.8 38867.2 22373.3 40318.9 35520.3 24117.2 39882.8 34016.2 
30948.7 32410.2 40592.9 31151.3 32664.1 39382.8 19080 41043.7 33266.8 
18960.9 41230.7 31132.8 5112.8 31060.7 39756.7 18812.6 41180.1 31564.6 
17671.9 41230.7 30101.6 12735.3 41023.5 38880.2 5238.71 27540.9 42280.3 
4732.78 25703.1 41960.9 4207.87 27507.8 38351.6 28560.2 37600 35019 
30328.4 31623.1 43148.2 31136.9 30085.9 42476.6 30912.5 30248.3 42694.1 
31093.6 28281.2 42734.4 4796 25910.6 41902.8 4208.91 23640.6 40929.7 
9793.13 39941.2 33241 22018.8 41220.4 28976.1 20250 41745.2 27265.6 
18035 41280.3 30216.6 17414.1 41711.2 27265.6 5746.4 23497.6 46397.9 
6267.28 23382.8 48921.9 31648.3 30626.6 34692.7 31652.5 32406.2 33195.3 
17901.5 41582.8 27776.8 18445.3 41745.2 25718.8 4355.65 27832.8 38406.7 
4207.87 26218.8 36546.9 31578.1 32070.1 33274.8 31128.7 33437.5 30875 
4436.3 27904 28038.9 4207.87 28281.2 26492.2 31570.8 28336.8 39162.6 
6298.63 36491.2 32990.5 5738.25 35757.8 31648.4 31617.5 26992.2 36031.2 
31661.4 30609.1 34366.4 26893.6 38933 25589.2 25262.9 41171.9 25976.6 
4739.17 32599.7 30327.4 5039.06 34210.9 30921.4 5211.28 22839.8 27754.6 
4723.5 22867.2 29585.9 4374.63 28010.8 26796.3 4697.72 27507.8 23914.1 
31078.1 29023.8 31132.8 18187.5 42246.4 21851.6 26340.7 39540.4 32597.4 
26179.7 40223.1 30101.6 30993.5 33148.1 31004.9 30410.9 33953.1 29070.3 
4799.91 27369.1 24114.3 5225.72 26734.4 21851.6 27898.4 37524.5 25908.3 
27984.4 38874.2 27007.8 6141.78 24470.7 23645.4 6763.31 22351.6 22882.8 
26726.2 35053.3 20963.2 25664.1 37562.5 20678 29349.8 24958.7 45534.7 
29015.6 24383.1 47632.8 22120.7 41254.9 20687.2 21848.4 40398.4 17984.4 
6903.97 37813.9 29850.3 28483.2 22240.8 46610 27984.4 19663.1 46085.9 
10101.2 39962.9 24200.4 12000 40656.2 22567.2 22011.1 40315.2 18344.3 
22196 39367.2 16953.1 5237.37 26761.4 22209.8 6130.12 25703.1 20046.9 
21598.3 41574.4 20090.5 20507.8 41743.2 18757.8 29856.4 23009.6 37559 
30046.9 23125 35454.8 14545.3 41274 26876.4 12515.6 40718.1 24945.3 
28198.5 21629.6 47323.9 27537.8 20289.1 48921.9 12771.1 39879.6 18743.8 
14012 40398.4 16953.1 29567.2 34033.3 26615.7 29045.5 32921.9 24945.3 
9146.12 20611.7 20748.3 8390.62 21927.7 20046.9 7823.44 38851.6 26492.2 
29871.9 22936.2 36019.3 29273.4 22064.9 34226.6 7799.31 18254.3 26688.3 
8321.53 18742.2 24945.3 29591.3 32254.5 26834 30562.5 31117.2 28550.6 
8588.11 23060.9 18653.5 9937.5 21917.4 17984.4 23349.6 36318.5 16262.5 
22312.5 36898.4 15148.4 7327.4 24241 20034 7341.84 24929.7 18242.2 
28094.2 35965 24281.8 26695.3 37609.9 22882.8 29272.7 22172.6 34295.9 
28757.8 21702.9 32937.5 15673.4 41163.6 16354.1 14320.3 40192.2 14375 
30076.1 27097.9 30037.2 29577.7 26734.4 28554.7 5682.77 36071.3 26865.3 
6328.12 37425.3 24429.7 28007.1 19935.3 36442.1 27009.8 18484.4 35515.6 
7448.68 24725.8 18545.5 8132.81 24801.8 16953.1 21009.4 41665.5 19370.9 
18960.9 42260.9 19789.1 29652.5 26681.1 28965.3 28866.1 25445.3 27781.2 
8215.41 16961.4 28038.1 8004.94 15906.2 29843.8 22666.1 41771.9 24740 
21796.9 42259.8 22625 28778.2 21818.3 32983.2 28242.2 21578.1 31548.4 
28481.9 35602.5 25068.8 28055.5 34210.9 23398.4 6465.8 37328.5 24702.9 
7101.56 38129.7 23398.4 26017.9 17365 38023 25406.2 16554.9 36804.7 
7823.23 14774.5 32445.8 9164.06 14101.6 30829.6 25318 31943.1 18159.2 
24427.6 32406.2 16695.3 9968.77 23943 15473.4 11112.1 24156.2 13343.8 
7074.34 38051 23606.3 8132.81 39112.5 22367.2 7986.69 26977 15118.3 
8906.25 26942.7 13085.9 6961.31 15207.6 34448.6 7306.78 14101.6 35515.6 
9218.31 15465.5 28502.8 10073.6 14101.6 29328.1 7601.62 29677 13633.1 
8906.25 29312.5 10726.4 8053.61 29744.1 12555.2 8314.31 30859.4 11539.1 
[...]
CELL_DATA 1299
SCALARS radius float
LOOKUP_TABLE default
1.16412 0.954786 0.951432 0.88719 0.821709 0.420393 0.889587 0.767098 0.520674 
0.393934 0.0561787 0.615952 0.612854 0.77956 0.315408 0.0976637 0.0517546 0.754872 
0.0541283 0.775225 0.0906237 0.718727 0.05763 0.604842 0.250379 0.172344 0.71711 
0.0574613 0.0810592 0.736883 0.0694051 0.496656 0.0712695 0.448094 0.0612194 0.131138 
0.642478 0.122552 0.512897 0.0539053 0.599686 0.089053 0.0600082 0.587208 0.47587 
0.0860985 0.313963 0.0703954 0.617079 0.0919354 0.471771 0.0901133 0.438323 0.0818154 
0.751047 0.563354 0.0554892 0.561463 0.0526818 0.533927 0.078568 0.595781 0.0773511 
0.435498 0.0606284 0.397171 0.110748 0.42874 0.0638989 0.512875 0.0775486 0.57782 
0.0578986 0.575253 0.0630056 0.364712 0.088715 0.545012 0.0998586 0.463119 0.0804529 
0.516069 0.0731725 0.445494 0.290393 0.146332 0.302741 0.113228 0.485108 0.102174 
0.461808 0.0819226 0.387041 0.0886075 0.594018 0.0706516 0.103282 0.389512 0.0899686 
0.296896 0.0820834 0.506241 0.0602712 0.286055 0.0950504 0.382224 0.0911133 0.461979 
0.110018 0.380597 0.0926427 0.450622 0.0681532 0.511467 0.0834373 0.326948 0.0774062 
0.512842 0.0598286 0.414983 0.147004 0.476189 0.077323 0.57593 0.0901011 0.267886 
0.174425 0.376354 0.0673849 0.271617 0.100178 0.276947 0.103008 0.297012 0.092561 
0.542317 0.0764032 0.358243 0.106806 0.49961 0.0869148 0.343607 0.0972402 0.360694 
0.110943 0.280221 0.0692127 0.284556 0.0841393 0.540841 0.0820341 0.31367 0.0858764 
0.489188 0.101406 0.472331 0.0936562 0.478354 0.0878358 0.385926 0.0783826 0.487356 
0.181509 0.141502 0.34529 0.0960258 0.368727 0.0977833 0.494406 0.0804453 0.2948 
0.146792 0.372814 0.149576 0.331347 0.153358 0.356684 0.111433 0.27337 0.170395 
0.532257 0.0731061 0.246473 0.164748 0.30276 0.132074 0.485455 0.101209 0.47683 
0.0815517 0.186105 0.150272 0.278173 0.148069 0.526479 0.0706723 0.34807 0.0979611 
0.440221 0.0800477 0.406256 0.0798803 0.295538 0.14566 0.344221 0.177329 0.412862 
0.0823411 0.317449 0.171139 0.267397 0.09471 0.367426 0.111768 0.215297 0.211544 
0.301785 0.183929 0.412296 0.0883925 0.340563 0.0914233 0.412096 0.0992122 0.305783 
0.0895916 0.330873 0.100743 0.277132 0.172543 0.365711 0.144109 0.361789 0.0731377 
0.393731 0.163197 0.363261 0.100665 0.355278 0.110516 0.410998 0.117143 0.192567 
0.186147 0.347252 0.160176 0.34348 0.146552 1.16502 0.88987 0.953233 0.162293 
0.168183 0.532514 0.0529553 0.202992 0.768723 0.283229 0.066232 0.777123 0.278461 
0.0826762 0.51018 0.0798986 0.504343 0.0673113 0.717566 0.0890059 0.277206 0.0869112 
0.298803 0.274733 0.0892354 0.522054 0.21564 0.0899055 0.0943358 0.589254 0.454033 
0.0582666 0.153614 0.115699 0.173327 0.164857 0.249769 0.491949 0.10169 0.261998 
0.0978166 0.245325 0.14822 0.250336 0.0608646 0.258501 0.159463 0.196943 0.146453 
0.203123 0.101928 0.636522 0.077514 0.597338 0.261355 0.0618458 0.118447 0.184948 
0.226045 0.148705 0.282277 0.105644 0.491892 0.0959228 0.284049 0.0600043 0.0658071 
0.155801 0.213138 0.0813545 0.174063 0.161532 0.277246 0.0920455 0.260611 0.0889517 
0.372722 0.125617 0.231577 0.127784 0.431427 0.114237 0.306415 0.12098 0.234725 
0.261442 0.103464 0.254835 0.148423 0.222328 0.171872 0.268989 0.0916827 0.250294 
0.125846 0.592456 0.0867127 0.450716 0.10152 0.178496 0.136715 0.343052 0.122861 
0.175157 0.0984391 0.21062 0.15917 0.110649 0.256729 0.064046 0.208202 0.134849 
0.276846 0.128044 0.223761 0.125005 0.172798 0.163904 0.350835 0.102909 0.136831 
0.132225 0.253389 0.0528555 0.252091 0.180671 0.171355 0.103836 0.267511 0.0866474 
0.310962 0.0820692 0.201928 0.135969 0.247333 0.148479 0.165889 0.151038 0.272738 
0.154267 0.187306 0.127363 0.252017 0.0742773 0.524377 0.0807478 0.262278 0.100151 
0.277081 0.131923 0.155729 0.149096 0.485857 0.116756 0.287427 0.185005 0.227503 
0.165579 0.265462 0.15089 0.363161 0.136032 0.25518 0.174378 0.255335 0.177744 
0.24962 0.145927 0.224495 0.178068 0.240109 0.128466 0.266731 0.119163 0.237716 
0.138589 0.327601 0.121015 0.218651 0.116863 0.291727 0.0737494 0.315445 0.0775438 
0.299321 0.170561 0.242175 0.219644 0.376387 0.154925 0.248578 0.178586 0.278771 
0.0935165 0.167097 0.162165 0.279588 0.194748 0.173597 0.153825 0.237802 0.21688 
0.214744 0.168966 0.276337 0.249468 0.321682 0.0825855 0.302011 0.136707 0.179056 
0.173592 0.238063 0.15603 0.339545 0.142991 0.159277 0.145603 0.192814 0.186138 
0.304129 0.137542 0.270462 0.12634 0.253826 0.154458 0.330556 0.163114 0.347333 
0.122482 0.272129 0.185835 0.316052 0.127321 0.258044 0.247526 0.0758187 0.0888077 
0.756527 0.508309 0.0709494 0.322474 0.0910394 0.593772 0.196667 0.737514 0.100936 
0.12757 0.215622 0.0992527 0.174906 0.0912042 0.151182 0.217557 0.0783849 0.186674 
0.0864006 0.145919 0.120198 0.212868 0.185561 0.59831 0.101395 0.477914 0.111718 
0.113983 0.108845 0.306143 0.0770408 0.179949 0.118539 0.131898 0.127347 0.441042 
0.116409 0.302802 0.0829369 0.563002 0.113434 0.122712 0.11773 0.391528 0.0973369 
0.18308 0.138006 0.151947 0.147716 0.230101 0.11406 0.174672 0.112563 0.385901 
0.117618 0.187284 0.148872 0.213633 0.1134 0.163223 0.0872401 0.157249 0.119526 
0.306516 0.106993 0.220351 0.124483 0.192147 0.112401 0.254046 0.116284 0.291307 
0.109499 0.49382 0.11808 0.315929 0.113551 0.225008 0.149331 0.379762 0.0770985 
0.212469 0.132725 0.219013 0.118494 0.320829 0.12967 0.36895 0.135696 0.202709 
0.114884 0.491559 0.119601 0.146992 0.134769 0.234449 0.191197 0.129334 0.126321 
0.192594 0.166672 0.186548 0.13083 0.346958 0.129552 0.161123 0.153684 0.235958 
0.149852 0.149294 0.140522 0.325477 0.118271 0.228976 0.110503 0.340132 0.143754 
0.259196 0.17183 0.226025 0.142459 0.156822 0.119577 0.154106 0.149304 0.260619 
0.0903776 0.315913 0.159314 0.22084 0.184014 0.195174 0.13237 0.201473 0.117122 
0.244179 0.102258 0.233337 0.116913 0.249234 0.165825 0.229075 0.152187 0.529019 
0.128509 0.179558 0.133808 0.29348 0.193722 0.257121 0.159384 0.30381 0.182662 
0.250981 0.169786 0.23483 0.17979 0.275222 0.156866 0.269397 0.229989 0.192543 
0.18489 0.178575 0.169213 0.213005 0.18733 0.23682 0.191833 0.280576 0.140975 
0.255405 0.104155 0.307908 0.213453 0.422755 0.0991839 0.26045 0.106722 0.257272 
0.152392 0.229741 0.147563 0.14376 0.137151 0.207335 0.165904 0.226131 0.164144 
0.496593 0.12683 0.203178 0.189267 0.253467 0.154835 0.248178 0.22982 0.173223 
0.0786982 0.0954796 0.140938 0.0788209 0.134519 0.124815 0.277417 0.0818419 0.214362 
0.114819 0.171518 0.0948814 0.131958 0.166827 0.146267 0.271802 0.127967 0.109536 
0.105541 0.499085 0.0885694 0.162818 0.0597261 0.236445 0.150718 0.158197 0.123574 
0.156429 0.147098 0.194048 0.113954 0.21076 0.0993697 0.1423 0.166439 0.0600134 
0.581342 0.0687519 0.51368 0.0860271 0.219353 0.115987 0.374585 0.0920769 0.367904 
0.108713 0.464762 0.101987 0.194734 0.147089 0.173065 0.11938 0.545824 0.0898205 
0.183216 0.134169 0.576254 0.0998566 0.161372 0.154163 0.197156 0.122879 0.110057 
0.104433 0.487435 0.118191 0.118628 0.155154 0.144723 0.281779 0.104912 0.59358 
0.105863 0.296248 0.108561 0.152545 0.0985253 0.595117 0.105251 0.176133 0.142748 
0.17836 0.131892 0.3791 0.0943882 0.188948 0.112491 0.15007 0.141929 0.177133 
0.167706 0.380775 0.123868 0.203959 0.164506 0.178126 0.131397 0.197148 0.174619 
0.19002 0.105753 0.180465 0.16338 0.129005 0.124461 0.474616 0.115398 0.541917 
0.0981748 0.214586 0.166002 0.209564 0.103324 0.193875 0.172275 0.231086 0.159082 
0.277255 0.129446 0.184368 0.0941277 0.164394 0.133455 0.349696 0.116873 0.174594 
0.111205 0.168636 0.15067 0.228154 0.198746 0.177754 0.168481 0.215301 0.159211 
0.183145 0.157456 0.21093 0.174885 0.192459 0.168797 0.242533 0.185853 0.139848 
0.129724 0.442919 0.11643 0.354518 0.133651 0.217778 0.189489 0.224488 0.205285 
0.222594 0.186331 0.226597 0.215708 0.212294 0.199765 0.285546 0.125954 0.257064 
0.1524 0.255316 0.210844 0.292014 0.156034 0.170205 0.157327 0.251381 0.201462 
0.323633 0.167563 0.221628 0.202723 0.340919 0.178911 0.257508 0.14284 0.269007 
0.189859 0.252494 0.189064 0.165411 0.155522 0.316475 0.15279 0.202843 0.194196 
0.204915 0.177704 0.25181 0.165286 0.223848 0.196018 0.184872 0.164864 0.267458 
0.233399 0.242271 0.219033 0.161877 0.0964026 0.129053 0.0988542 0.951662 0.0854943 
0.522648 0.078663 0.0798093 0.116465 0.136921 0.781434 0.0695561 0.423236 0.0667154 
0.136854 0.533311 0.0878993 0.114924 0.10688 0.20188 0.0731503 0.104102 0.0993178 
0.22713 0.0951634 0.264023 0.0820491 0.132453 0.113494 0.210996 0.0875146 0.138129 
0.0989237 0.325397 0.0972635 0.150809 0.092617 0.118581 0.605463 0.0880474 0.11333 
0.137282 0.0772369 0.104 0.178148 0.0893431 0.49345 0.103016 0.138814 0.264749 
0.0859277 0.172194 0.163771 0.22751 0.115796 0.455677 0.100686 0.121777 0.103575 
0.131151 0.228485 0.0686857 0.123383 0.217036 0.137236 0.1952 0.103765 0.130955 
0.124327 0.444346 0.0964964 0.230728 0.121757 0.125497 0.19096 0.111816 0.436969 
0.0943578 0.463514 0.103082 0.383608 0.109669 0.189446 0.154081 0.383009 0.0608754 
0.157761 0.092663 0.114448 0.15363 0.06275 0.168522 0.108231 0.160847 0.132397 
0.282112 0.104523 0.507304 0.0935718 0.152092 0.165649 0.14168 0.313607 0.127522 
0.170849 0.153105 0.206918 0.191785 0.149385 0.141814 0.156421 0.140626 0.393521 
0.0973076 0.137449 0.111116 0.214462 0.186615 0.23567 0.128049 0.209682 0.160594 
0.165732 0.146216 0.262314 0.126602 0.0984231 0.477647 0.0998337 0.138713 0.131563 
0.156914 0.147355 0.170758 0.12638 0.171045 0.161771 0.161943 0.120471 0.285242 
0.106382 0.214139 0.186525 0.279507 0.115693 0.164532 0.0997943 0.150121 0.143028 
0.365744 0.125967 0.175527 0.13067 0.161827 0.148034 0.198731 0.188948 0.216854 
0.103322 0.178406 0.132968 0.204497 0.190269 0.275564 0.124724 0.377281 0.123532 
0.26677 0.132727 0.194046 0.183744 0.209553 0.196156 0.533939 0.112771 0.169277 
0.157823 0.198715 0.192277 0.248346 0.148823 0.215 0.18974 0.176879 0.139258 
0.178295 0.171391 0.164517 0.158359 0.196076 0.145285 0.19493 0.177946 0.205153 
0.193712 0.292976 0.123096 0.230411 0.183093 0.328916 0.131936 0.210749 0.165543 
0.248488 0.21862 0.197542 0.189161 0.213219 0.158724 0.312733 0.125871 0.242574 
0.224793 0.262415 0.223915 0.176195 0.165026 0.210589 0.201728 0.161028 0.143581 
0.360459 0.125793 0.340078 0.147545 0.225398 0.192303 0.13342 0.129283 0.214434 
0.184897 0.207646 0.169194 1.16449 0.0738944 0.114662 0.103354 0.890356 0.0716003 
0.955287 0.064875 0.111032 0.103096 0.890201 0.0923061 0.887863 0.0703307 0.149568 
0.0920131 0.887459 0.0859032 0.887716 0.0847526 0.822066 0.0897553 0.537982 0.0511334 
0.155927 0.107084 0.13916 0.129793 0.115869 0.11245 0.150731 0.0699406 0.536184 
0.0644004 0.168239 0.107895 0.118932 0.112272 0.162291 0.14452 0.426623 0.07142 
0.890246 0.0751656 0.122422 0.113715 0.769246 0.0974988 0.116092 0.104463 0.197619 
0.0958337 0.616326 0.0752796 0.534226 0.0921505 0.777427 0.0820708 0.194219 0.0864768 
0.236118 0.113101 0.142212 0.126111 0.186108 0.123281 0.18752 0.119597 0.146849 
0.135109 0.179663 0.157751 0.180938 0.16151 0.151946 0.0940998 0.502678 0.0895335 
0.494171 0.080764 0.320037 0.111918 0.755107 0.0737444 0.168007 0.105852 0.162451 
0.150854 0.50173 0.0893129 0.254381 0.0957943 0.127977 0.113485 0.236722 0.112448 
0.125716 0.10842 0.152638 0.122084 0.246084 0.117854 0.227942 0.122058 0.124724 
0.116915 0.145622 0.104703 0.534976 0.0965154 0.446855 0.0933298 0.186241 0.174818 
0.173146 0.110875 0.121548 0.11011 0.587812 0.0855044 0.174183 0.122299 0.127488 
0.12296 0.512696 0.0988811 0.514914 0.0992982 0.182103 0.116862 0.240587 0.0997784 
0.148941 0.131085 0.181788 0.106899 0.193685 0.17869 0.329692 0.0938506 0.154527 
0.14251 0.150375 0.146641 0.224156 0.12723 0.116067 0.110453 0.141167 0.125709 
0.187563 0.141223 0.147449 0.132441 0.148507 0.13933 0.442824 0.101448 0.173099 
0.105865 0.150602 0.14208 0.186038 0.144593 0.183761 0.163239 0.15365 0.124286 
0.265347 0.131748 0.158742 0.0999374 0.316846 0.0982036 0.156784 0.141877 0.14774 
0.131391 0.159078 0.126141 
