# vtk DataFile Version 4.1
vtk output
ASCII
DATASET POLYDATA
POINTS 1300 float
16125 47875 54078.1 15403.1 46113.6 52634.4 15186.6 45585.2 52201.2 
17676.3 43380.4 45398.2 12151.7 42217.6 43953.5 11081.1 40844.4 41364.2 
22180.8 40747 43669.3 22684.4 40424.6 43156.8 28500 36398.2 39898.4 
7422.07 34787.5 43239.7 27157.2 37052.4 41127.2 30619.2 32921.9 42476.6 
21385 40735.8 33605 24818.2 38876.2 42002.6 6300.49 35849.1 35151.3 
4207.87 30859.4 32421.9 9661.33 39543.3 39864.7 10195.3 40170.5 35000 
5870.87 32086.6 41300.7 28248.3 36291.2 40128 31593.8 33250.8 37062.5 
4835.7 32356.3 33240.7 4207.87 31890.6 28554.7 17112.1 41096.2 31712.7 
13031.2 41224.5 32679.7 29683.3 33315.2 42328.8 30611 27765.6 44023.4 
16421.1 41190.3 30945.8 16640.6 41244.1 27007.8 9719.19 39816.5 35844.3 
7824.47 38851.6 31648.4 6046.18 27601.5 44501.5 6070.31 22093.8 48289.7 
4528.08 31045.3 32622.9 4207.87 26734.4 30875 30263.6 33071.4 42420.4 
30698.7 33520.4 37529.2 31652.5 29312.5 34484.4 8392.89 39141 32907.2 
4364.11 28094.6 30873.2 4523.44 25673.2 26492.2 27948.2 38551.9 33941.9 
22750.8 41390.7 28183.1 24421.4 41429.7 24171.9 16314.3 41346.8 27283.6 
15788.8 41687.5 22367.2 4408.76 31750.9 28827 4207.87 30859.4 24171.9 
30011.8 28314.3 43627.2 29531.2 23382.8 44545.2 29602.4 36273.4 28812.5 
4319.25 26903.5 30802 4523.44 23764.4 30359.4 4816.31 26167.7 26739.1 
5751.66 24671.9 22367.2 30923.6 28978.8 40354.9 30636.8 24929.7 39382.8 
31114.3 30269.5 34592.5 30820.3 27921.3 31390.6 24110.7 41094.3 24894 
25423.8 39109.4 21593.8 28218.6 38528.9 33323.4 26759.2 40140.6 30875 
27369.3 39542.6 31262.7 24924.8 39863.6 22847.8 22700.2 40398.4 19015.6 
28886.8 36562.9 29065.9 29015.6 34984.4 25675.4 16123.3 41586.5 22641.1 
7931.61 38849.1 31756.6 4611.3 25821.6 26566.3 6270.37 20804.7 26234.4 
10227 40131.8 28792.5 12000 40715 24429.7 4686.37 23974.7 30608.6 
5396.91 20031.2 30617.2 5649.36 24782.5 23861.3 7359.38 21722.5 22109.4 
6905.21 22861.8 22397.7 8390.62 22210.3 19789.1 5720.92 24705.1 22815.4 
5752.69 26218.8 20562.5 25274.1 39335.6 21970 26437.5 36015.6 20746.1 
4362.15 31172.3 24779.1 4922.53 31375 19531.2 29446.8 24729.3 44836.7 
27726.6 20671.7 48921.9 30487.3 25434.3 39500.9 29015.6 20725.3 38351.6 
28946.1 35836.8 27506.3 29904.6 30601.6 27265.6 29457.1 22138 38696.3 
29015.6 21231.6 35257.8 23249.2 39929.2 19617.2 22331.1 38078.1 15921.9 
29254 21488.1 38537.7 27858.6 19000 41703.1 6364.84 21286.9 26169.7 
8029.69 18226.6 25718.8 28567.8 22387.8 46405.3 27468.8 18148.2 45828.1 
5502.4 20418.8 30903.2 6585.94 16908.6 31648.4 30677.2 28143.9 32403 
29063.1 23640.6 30617.2 8199.02 22478.2 20060.3 9886.97 22867.2 16695.3 
26010.3 36284 20797.6 26241.6 33179.7 19531.2 5743.2 25764.6 21238.4 
7341.84 25187.5 17984.4 24422.1 39883.3 21878.6 21281.2 42256.8 21335.9 
5116.82 30804.8 20416.5 6256.97 29570.3 16695.3 6585.94 37614.1 24945.3 
5458.88 30434.5 19300.1 5812.5 32921.9 16632.4 22606.5 38633.5 17030.5 
24049.1 34468.8 16437.5 14198.6 40140.6 14117.2 29087.1 20954.1 38407.5 
27210.9 18432.8 37835.9 11432.6 40384.6 24815.2 12000 40201.5 20820.3 
28887.2 21200.3 36280.8 26994.4 18742.2 33968.8 4440.84 31855.3 26218.1 
27459.5 18863 45579.7 26179.7 15855.7 44281.2 7396.6 22013.5 22315.6 
9539.44 19000 22367.2 30777.4 27988.1 31694.3 29273.4 26689 28039.1 
9474.36 23030.7 17206.8 10195.3 24785.3 13859.4 29526.7 26680.8 29137.9 
27322.3 23382.8 26750 6473.84 17454 31736 7875 14034.5 33710.9 
26309.4 36096.1 20761.5 27984.4 33953.1 22817.8 6268 29507.8 17109.9 
7875 27457.3 14632.8 11901.7 40084 20912.8 12135.1 39625 17726.6 
5894.9 31979.1 17141.8 7285.12 32406.2 13601.6 6552.32 17072.2 31674.7 
8906.25 15390.6 29120.8 27391.4 19458 34159.9 26179.7 19114.5 30875 
23616.3 35718.2 16615.4 22361 33179.7 13343.8 7392.89 28072.4 15375.9 
8197.78 29312.5 12312.5 6940.69 37966.1 25655.9 8125.59 39109.4 22367.2 
7062.06 32651.9 14377 8373.09 34984.4 12312.5 7004.32 15932.2 32992.5 
6760.22 15132.8 35773.4 27359.8 18687.7 38134.6 24655.5 15390.6 38867.2 
23919.3 34843.6 16490.9 24375 29828.1 16613.8 27113.5 18956.9 34026.1 
24890.6 16993.2 32679.7 7928.63 14258.6 33661.3 9937.5 11975.1 34742.2 
27983.6 24372.2 27466.4 26497.3 24671.9 23914.1 26543.2 19217.5 31860.5 
27210.9 21187.3 29328.1 26122.1 19042.7 31124.9 24444.1 18226.6 29070.3 
26666 16998.5 44774.7 25480.5 14617.2 46859.4 7457.86 38365.1 23384.3 
6995.34 37304.7 19531.2 25931 15522.1 46067.2 23343.8 12131.9 44281.2 
24045.6 31037.9 16303.3 22901.3 28796.9 14632.8 23336.2 29648.5 15267.5 
22359.9 30085.9 12828.1 11997.3 39568.5 18189.8 11600.9 38335.9 14890.6 
6846.02 15096 35455.7 6902.53 13328.1 38867.2 6876.54 14141.4 37297.9 
9421.88 11723.5 38093.8 24634.8 18260.1 29444.6 22570.3 16892.1 27781.2 
27009.1 24994.3 24760.3 26437.5 27724.4 21078.1 24501.3 18236.6 29182.6 
25406.2 20376.7 26750 7058.97 37198.3 19734.1 6826.22 36015.6 16953.1 
7014.42 37272.8 19592.1 23522 12613.3 44984.7 21023.4 9976.56 44752.5 
23205.7 29393 15077.2 23343.8 26218.8 16398.3 22809 29884.7 13950.3 
21539.1 27406.8 12312.5 22180 29098.2 12953.9 20765.6 29045.4 9992.19 
8658.24 12448.9 37855 9017.62 10492.2 41187.5 23189.7 17302.5 28280.2 
22364.1 18226.6 25203.1 22954.3 17146.6 28090.6 21048.2 14875 29585.9 
29314.6 26871 28253.4 28500 28023.4 24939.1 21731.4 27914.2 12504.9 
20765.6 24156.2 14168.8 24305.6 30095.7 16691.1 24890.6 28023.4 18119.5 
21596.8 27559 12370.3 19734.4 26163.1 10250 22431.3 18317.8 25307.4 
21796.9 19257.8 22740.5 22685.5 16968.5 27874.1 19781.8 15648.4 26492.2 
22384.2 18253.9 25234.4 19218.8 17083.9 23398.4 21198.4 15263.4 29326.6 
18445.3 13268.3 30617.2 29444.9 32433.9 27025 29017.7 30601.6 24945.3 
22139.5 18750.2 24126.6 23859.4 21062.5 22970.5 20146.2 17653.4 23639.8 
17929.7 18226.6 20532.6 28924.9 31060.2 25145.9 27530.6 30343.8 22367.2 
23431.1 20746.1 22945.5 24117.2 23262.2 20562.5 18972.1 13598.5 30629.7 
16898.4 11779.2 33195.3 20174.3 14497.6 29926 17671.9 13829.3 28296.9 
23801.6 22104.8 21658.7 22178.4 22093.8 19015.6 24022.5 22914.9 20891.4 
25259.8 25187.5 20820.3 17732.5 12408.2 32766.5 17671.9 11724.5 36546.9 
22665.4 22097.1 19808.5 20295.4 20289.1 19273.4 22195.8 22073 19122.5 
20250 21931.8 16437.5 20568 20688.3 19237.4 17671.9 19653.8 17984.4 
17245.6 42973.4 44061.2 25040.7 38820.6 39286.6 8016.18 36018.7 43455.9 
7359.38 31117.2 47708.1 28424.5 36366.1 39967.3 6175.5 30069 43690.2 
5296.88 28539.1 42481.7 7462.81 31258.1 47631.8 7359.38 29312.5 49211.7 
29260.8 35143.6 39430.4 30754.3 33437.5 40156.2 10052.5 40064.3 35253.3 
4781.25 32148.4 38898.1 29831.3 34719.1 38490.3 30562.5 35242.2 36381.9 
4729.69 26218.8 41703.1 28757.8 37092.2 36031.2 17798.1 41060.8 32420.8 
18703.1 41230.7 29585.9 24163.4 39949.4 34182.4 23859.4 40656.2 32233.2 
16062.1 41238.2 29550.1 14062.5 41230.7 28039.1 9932.24 39753.3 38423 
11484.4 40516 37320.3 5005.03 26048.1 42421.1 4265.62 24414.1 41040 
5218.6 32329.5 39706.9 5238.09 33953.1 38093.8 4924.8 29729.3 39771.8 
4207.87 29312.5 37062.5 14255.5 41186 32389.6 12515.6 41224.5 30359.4 
31325.2 33331.7 37202.5 31645.3 33953.1 35000 30896.9 31397.6 40857.6 
31959.8 30601.6 38609.4 25921.9 39625 33514 20765.6 41745.2 27007.8 
16019.7 41395.2 25666.7 14578.1 41230.7 24687.5 4207.87 26992.2 37062.5 
21918.1 41677.5 27562.1 21796.9 42247.5 24945.3 31508.7 33469.4 35730.5 
31652.5 32406.2 33453.1 20788 41727 27049.2 18703.1 41745.2 26234.4 
31540.9 32729.4 33707.1 31132.8 32664.1 30875 31280.2 28582.8 39553.7 
31648.4 27250 37062.5 5958.94 35849.4 34504 6070.31 36581.8 31648.4 
4393.5 27660.1 28165 4207.87 28023.4 26492.2 31619 32503.2 33529.3 
31608.2 30343.8 32421.9 21833.2 42076.5 25730.3 19734.4 42257.8 24171.9 
5910.06 36079.3 32840.2 5268 35242.2 31390.6 9510.77 39797.5 29761.9 
8648.44 39654.9 27781.2 4264.59 27817.1 26691.2 4255.31 27250 24687.5 
31491 29599.6 34516.8 31152.4 26992.2 34742.2 27156.1 39969.4 27987.7 
10628.2 40250.4 26052.2 9937.5 40194.2 24687.5 16339.9 41569.8 23632.1 
17929.7 41945.3 22155.8 5373.19 35334.8 31493.3 4781.25 34289.3 29328.1 
25378.9 39177.2 21706.6 24890.6 38642.2 20046.9 29393.4 23565.3 44544.6 
28757.8 21320.3 43812 4367.51 27321.8 24975.8 5039.06 26669.4 22882.8 
6026.18 24206.3 23422.2 6264.19 22351.6 24171.9 29387.7 36360.3 28888.5 
30462.5 34210.9 29328.1 30591.9 25081.1 39418.2 30562.5 23819 37320.3 
16315.3 41618.7 20373.6 17852.3 42203.1 19015.6 27984.4 38642.2 26750 
29584.2 25935.6 44804.8 29015.6 24383.1 47632.8 28775.4 21430 43896.7 
28360.8 20031.2 43507.8 28850.9 35459.2 26252.2 28052.4 35757.8 24171.9 
28951 35008.1 25857.3 29060 33695.3 25203.1 30432.1 23855.4 37462.8 
30071.6 22867.2 36031.2 27801.6 39025.4 27023.8 27318.2 38335.9 24687.5 
28062.4 21283.8 47659.3 27542 19773.4 47632.8 6353.29 22548.9 23969.5 
7359.38 20183.9 24171.9 29413.6 25469.8 45653.2 29273.4 26992.2 47920.5 
22272.3 41357.9 21237.1 20507.8 41770 19273.4 28101.8 35878.8 24476.6 
27316.1 36531.2 22882.8 30051.6 23111.2 36128.4 29588 22609.4 34742.2 
7593.47 22475.6 21358.8 8586.56 21062.5 20820.3 6897.27 37941.7 27767.4 
5953.78 37046.9 27007.8 29656.4 31591 27135.7 30562.5 31111 28554.7 
7397.01 19389.5 25890.1 7507.87 17710.9 27781.2 22874.1 37552 16683.9 
22570.3 36531.2 15355.7 28961.5 21271.7 35317.5 28876.4 21578.1 33710.9 
8333.18 22290.6 19870.4 9679.69 21017.1 19531.2 10255.2 40220 25315.2 
8340.09 39367.2 25203.1 6695.46 28962.4 16451 7101.56 26849.9 16953.1 
15216.5 40779.6 15462.9 15767.2 40914.1 13859.4 27983.9 20107 35261.7 
27029.4 18742.2 35515.6 7338.34 25289.6 18126.3 8132.81 25142.1 16695.3 
24161.6 33402.6 16669.8 25406.2 31890.6 18130.8 6260.27 29551.6 16819.7 
6799.41 30085.9 14890.6 7258.52 16567.8 30908.5 8014.22 14875 31390.6 
28858.5 21599.9 33848.2 28690.8 22093.8 31906.2 26548.5 17698.6 38354.3 
25788.8 16937.5 37062.5 7730.42 27641.8 14855.8 8390.62 25911.4 15148.4 
5241.19 35500 24687.5 21845.7 42189.5 25003.5 22054.7 42260.9 23398.4 
28637.2 21848.8 32322.3 27984.4 21296.6 31132.8 8280.08 15838 29800.2 
[...]
CELL_DATA 1299
SCALARS radius float
LOOKUP_TABLE default
1.159 0.85839 0.973923 0.852035 0.804381 0.967601 0.964236 0.0480493 0.421053 
0.79048 0.0664563 0.661995 0.844493 0.736993 0.0702359 0.801361 0.0498334 0.329429 
0.482174 0.0678592 0.726625 0.0706587 0.417127 0.0788544 0.724511 0.0876296 0.389497 
0.0649839 0.482412 0.0556131 0.330111 0.136224 0.646558 0.0620853 0.669019 0.459475 
0.0749399 0.470141 0.645656 0.0639538 0.456948 0.594822 0.0882368 0.368275 0.0902401 
0.480617 0.0681859 0.423554 0.0710541 0.0737451 0.509125 0.0426435 0.501605 0.0863354 
0.667127 0.0579579 0.43989 0.0750557 0.57855 0.0620007 0.451721 0.0687973 0.27481 
0.576925 0.0685738 0.401659 0.0781723 0.326274 0.349678 0.321211 0.0790271 0.387407 
0.0986393 0.507638 0.0833858 0.453173 0.0892358 0.385143 0.0726351 0.302287 0.107957 
0.289464 0.0727982 0.45068 0.105477 0.406168 0.129534 0.662247 0.0530272 0.38146 
0.100651 0.655413 0.0551645 0.538462 0.108296 0.314585 0.0983233 0.296279 0.0970503 
0.386446 0.102343 0.502522 0.0682323 0.423114 0.148129 0.352277 0.0833477 0.256999 
0.130324 0.299921 0.0949471 0.551534 0.101362 0.435472 0.0704197 0.0654037 0.4334 
0.116351 0.533157 0.0861751 0.118011 0.289956 0.0696271 0.356288 0.059298 0.630305 
0.0715928 0.480108 0.369525 0.0852738 0.223604 0.152147 0.405403 0.0818966 0.305212 
0.159746 0.399816 0.0930195 0.501756 0.0631276 0.19396 0.157937 0.34748 0.0800285 
0.320542 0.0914758 0.335778 0.121517 0.318066 0.0718233 0.618156 0.0726194 0.529699 
0.102723 0.308113 0.0891781 0.345865 0.097238 0.324472 0.121506 0.451862 0.0887527 
0.275491 0.0983244 0.518746 0.0893831 0.199776 0.105682 0.301456 0.0902787 0.311357 
0.112533 0.611121 0.126138 0.605033 0.0482836 0.363576 0.132148 0.338874 0.0651829 
0.34205 0.135572 0.49881 0.116605 0.461732 0.102955 0.245034 0.200537 0.39568 
0.0995967 0.384795 0.107417 0.601412 0.07194 0.274624 0.210178 0.198275 0.101101 
0.314714 0.158177 0.284041 0.326829 0.188497 0.321528 0.110157 0.402485 0.0935178 
0.389181 0.179578 0.350014 0.108339 0.5928 0.0525798 0.404061 0.0963718 0.298539 
0.0868882 0.35536 0.209993 0.294989 0.0989164 0.275614 0.177995 0.519822 0.118503 
0.158862 0.153784 0.375057 0.0819721 0.395704 0.0765508 0.315211 0.0939642 0.444299 
0.105747 0.370385 0.143643 0.272617 0.144438 0.427325 0.120828 0.357057 0.0914344 
0.393789 0.0931363 0.420662 0.0851432 0.232784 0.182298 0.320268 0.203811 0.395416 
0.138005 0.307752 0.132869 0.306279 0.223194 0.236818 0.475686 0.442349 0.0790161 
0.202895 0.33473 0.115256 0.212031 0.147651 0.468776 0.0998323 0.19632 0.0856897 
0.465436 0.07178 0.0733446 0.0577799 0.426603 0.0830049 0.201783 0.126333 0.385804 
0.069184 0.483741 0.0976211 0.236683 0.13718 0.236823 0.0584852 0.278232 0.11298 
0.232204 0.110602 0.222092 0.0948355 0.668086 0.108652 0.0874275 0.0490752 0.360574 
0.0920143 0.099343 0.247848 0.0617813 0.21996 0.0715585 0.166047 0.106392 0.190958 
0.148319 0.167234 0.106832 0.253065 0.0577868 0.51463 0.0585186 0.154674 0.149391 
0.219991 0.131372 0.248427 0.0496507 0.392774 0.112304 0.207246 0.0880212 0.185448 
0.117184 0.228839 0.378219 0.0518487 0.340938 0.110483 0.227944 0.0892747 0.157035 
0.0942363 0.210254 0.059046 0.191674 0.114444 0.402986 0.0710726 0.187996 0.11228 
0.207226 0.071465 0.323956 0.141978 0.113826 0.420017 0.112394 0.207514 0.0993215 
0.28268 0.0769917 0.203983 0.0785933 0.193416 0.09054 0.185113 0.169485 0.165337 
0.13288 0.188182 0.15498 0.192116 0.12814 0.22669 0.113635 0.241591 0.104428 
0.190108 0.115778 0.358175 0.130703 0.349208 0.106609 0.222788 0.147261 0.273886 
0.169981 0.531663 0.118395 0.203482 0.0692335 0.235601 0.102981 0.207051 0.1171 
0.328027 0.130742 0.307752 0.170532 0.622215 0.071309 0.246527 0.146312 0.517952 
0.137896 0.188136 0.0694531 0.317016 0.130819 0.202121 0.0892483 0.266032 0.116174 
0.214962 0.160815 0.0802408 0.186745 0.0804922 0.199376 0.147017 0.301582 0.127628 
0.35375 0.0579697 0.171364 0.164015 0.247494 0.115611 0.29041 0.155788 0.249705 
0.155096 0.227914 0.112441 0.188028 0.180515 0.252236 0.205886 0.155286 0.151727 
0.179402 0.173929 0.318689 0.129106 0.287043 0.145464 0.239701 0.155267 0.259655 
0.171909 0.289202 0.148366 0.511805 0.0731453 0.274566 0.187889 0.178541 0.169693 
0.350415 0.144365 0.316333 0.155695 0.18424 0.172831 0.103082 0.230161 0.144054 
0.259465 0.220839 0.282892 0.123842 0.280636 0.122299 0.273083 0.16686 0.305342 
0.188497 0.266972 0.176983 0.259061 0.199291 0.276478 0.171749 0.29647 0.122983 
0.270002 0.087384 0.431782 0.135125 0.213016 0.127942 0.314569 0.0989774 0.249566 
0.170808 0.233148 0.212975 0.19524 0.173568 0.211901 0.206827 0.305565 0.142 
0.252276 0.239338 0.461182 0.194006 0.112724 0.129996 0.338819 0.111635 0.120746 
0.11788 0.187036 0.153687 0.16377 0.113838 0.183049 0.127158 0.149562 0.0734394 
0.269731 0.125402 0.207156 0.13167 0.222406 0.0819029 0.424926 0.0904769 0.171672 
0.212229 0.124467 0.483973 0.0769361 0.187645 0.115533 0.13279 0.123553 0.107131 
0.174371 0.115011 0.193261 0.141103 0.10047 0.250114 0.16209 0.203113 0.123134 
0.181696 0.131196 0.114912 0.164606 0.148212 0.15166 0.117079 0.414898 0.0941092 
0.384007 0.0744523 0.142522 0.106911 0.177376 0.0783033 0.428617 0.0748948 0.216039 
0.112129 0.118713 0.11685 0.388815 0.118165 0.173952 0.128845 0.301648 0.112912 
0.169813 0.152523 0.503865 0.100663 0.14413 0.137046 0.185276 0.169399 0.205461 
0.108138 0.273157 0.113951 0.284036 0.0651203 0.135387 0.129249 0.189031 0.117869 
0.198391 0.115655 0.376082 0.10624 0.150175 0.142494 0.407927 0.0897476 0.441329 
0.0926009 0.173462 0.143599 0.387433 0.0932992 0.184505 0.174364 0.327828 0.13195 
0.184314 0.144404 0.295184 0.14104 0.200082 0.159985 0.340427 0.116823 0.250046 
0.157111 0.334133 0.0877134 0.218763 0.135664 0.172322 0.160913 0.183 0.166027 
0.227378 0.151054 0.192384 0.141601 0.309409 0.129892 0.201497 0.12471 0.331055 
0.128497 0.19977 0.164488 0.208244 0.126921 0.217713 0.170181 0.134961 0.129633 
0.1673 0.124391 0.263149 0.0775004 0.208283 0.138409 0.262142 0.117119 0.184788 
0.181458 0.228139 0.114143 0.18551 0.140884 0.171628 0.151649 0.266015 0.180211 
0.217779 0.127531 0.166509 0.144397 0.15354 0.139252 0.335344 0.140953 0.225511 
0.165536 0.190675 0.176633 0.296203 0.174231 0.203338 0.16708 0.604684 0.122272 
0.594141 0.112333 0.237562 0.160341 0.206781 0.18915 0.223468 0.182507 0.195527 
0.154681 0.2021 0.162576 0.317952 0.154313 0.33138 0.161943 0.522136 0.123504 
0.27806 0.122609 0.256206 0.132324 0.216519 0.207071 0.242828 0.171662 0.271978 
0.159632 0.289241 0.139235 0.167282 0.159072 0.15323 0.144973 0.436136 0.134995 
0.425155 0.134089 0.260634 0.166338 0.289981 0.173257 0.240241 0.171148 0.219395 
0.164209 0.235751 0.149786 0.231924 0.212618 0.221733 0.111045 0.121918 0.208308 
0.128113 0.201992 0.0998581 0.129784 0.106003 0.159757 0.119496 0.155544 0.13177 
0.432431 0.0754866 0.156385 0.0916659 0.459362 0.0906846 0.374163 0.109023 0.363961 
0.110074 0.441483 0.0975516 0.646282 0.0921897 0.16062 0.151475 0.180342 0.145116 
0.168821 0.148733 0.123495 0.119124 0.503173 0.105894 0.122968 0.118382 0.20976 
0.15867 0.4223 0.106698 0.151067 0.130613 0.410187 0.104298 0.181275 0.0966679 
0.238006 0.114435 0.148086 0.305194 0.0993099 0.320363 0.107641 0.168493 0.138288 
0.184135 0.119791 0.193736 0.0739501 0.156694 0.110948 0.165392 0.145947 0.163212 
0.15102 0.151344 0.126966 0.173082 0.169953 0.153745 0.140901 0.32049 0.116959 
0.404544 0.104257 0.157607 0.150803 0.312916 0.13021 0.26638 0.124451 0.208926 
0.109449 0.109091 0.104744 0.209429 0.19643 0.151282 0.144319 0.373234 0.115347 
0.233277 0.133423 0.213102 0.130749 0.187822 0.176378 0.260756 0.14005 0.190479 
0.143765 0.623155 0.103052 0.216659 0.191639 0.221325 0.194824 0.151368 0.134382 
0.127662 0.120347 0.209744 0.162594 0.206898 0.193216 0.148668 0.140428 0.162865 
0.133799 0.175603 0.169107 0.307933 0.121738 0.284457 0.16125 0.228047 0.137819 
0.175012 0.169792 0.168072 0.159226 0.234962 0.207197 0.184463 0.139285 0.152819 
0.120296 0.185461 0.166132 0.268318 0.148417 0.394186 0.124298 0.328024 0.081837 
0.162106 0.130134 0.196663 0.145564 0.189028 0.102785 0.168068 0.15413 0.198584 
0.155507 0.390022 0.13302 0.255965 0.177695 0.303982 0.132345 0.264701 0.228393 
0.215118 0.128534 0.186534 0.173812 0.181379 0.170238 0.204566 0.184138 0.218454 
0.166719 0.223769 0.201778 0.288203 0.165207 0.241422 0.153915 0.374712 0.121688 
0.243189 0.20676 0.233191 0.196733 0.292228 0.141837 0.234058 0.148994 0.237656 
0.159331 0.32975 0.144304 0.210881 0.185801 0.168047 0.145519 0.221384 0.168592 
0.229785 0.20624 0.29664 0.151151 0.209431 0.0673297 0.126969 0.135429 0.801641 
0.0814498 0.098856 0.0602951 0.161143 0.0935259 0.128595 0.448758 0.0901192 0.443754 
0.0938725 0.663538 0.0757415 0.737311 0.0803936 0.155758 0.108994 0.663868 0.0758585 
0.185731 0.169444 0.238043 0.098936 0.0956448 0.726909 0.0766574 0.469888 0.0902469 
0.428047 0.0924847 0.46022 0.0816369 0.28218 0.0976086 0.147694 0.0957834 0.142815 
0.136052 0.27772 0.121549 0.118516 0.136236 0.125076 0.133346 0.129627 0.595424 
0.0861633 0.146815 0.100771 0.151173 0.138981 0.136277 0.171483 0.124122 0.458181 
0.0918245 0.426714 0.0990884 0.202312 0.109624 0.213919 0.11469 0.580118 0.0857771 
0.120149 0.113445 0.173631 0.162033 0.20337 0.160734 0.147927 0.130508 0.510267 
0.0961976 0.508817 0.0970303 0.663606 0.093477 0.133984 0.116269 0.577866 0.0979776 
0.579492 0.0982051 0.309483 0.106719 0.134811 0.101109 0.147936 0.12579 0.662987 
0.0991634 0.1908 0.116336 0.393992 0.0827088 0.127159 0.124218 0.344488 0.107752 
0.143282 0.137199 0.175131 0.100738 0.138469 0.134793 0.199682 0.135998 0.178007 
0.133756 0.205703 0.113663 0.170845 0.114981 0.175944 0.161112 0.145514 0.133106 
0.534002 0.0896979 0.138352 0.122451 0.15003 0.137206 0.282816 0.127565 0.314598 
0.125759 0.198864 0.145611 0.402222 0.105097 0.284715 0.0686386 0.136124 0.128253 
0.168418 0.155465 0.12949 0.122713 0.267437 0.108886 0.219935 0.158909 0.36689 
0.109871 0.241741 0.158166 0.261279 0.0735459 0.186104 0.153353 0.182174 0.156201 
0.138849 0.131598 0.188649 0.168383 0.152898 0.145068 0.16972 0.131359 0.233025 
0.151362 0.454916 0.123484 0.398036 0.103643 0.209856 0.134925 0.192767 0.167587 
0.153089 0.150267 0.15967 0.15438 0.175061 0.164043 0.194172 0.187687 0.274008 
0.145281 0.185913 0.149502 0.189654 0.162988 0.19403 0.180489 0.355116 0.12391 
0.122265 0.119701 0.248425 0.22936 0.202121 0.185799 0.16037 0.152926 0.219818 
0.202498 0.20371 0.187808 0.289166 0.156242 0.191166 0.180718 0.268836 0.172253 
0.278254 0.160799 0.263607 0.226502 0.249261 0.196365 0.243734 0.21836 0.162316 
0.151057 0.252433 0.148326 0.251903 0.149046 0.209668 0.192406 0.219106 0.174547 
0.235742 0.200731 0.18304 0.174621 0.319704 0.158022 0.246535 0.225921 1.1592 
0.093155 0.228787 0.0796919 0.974132 0.0840082 0.122217 0.10968 0.852938 0.0836998 
0.216515 0.0987887 0.14023 0.134853 0.85267 0.0731016 0.111434 0.0997693 0.167879 
0.125441 0.259506 0.0655628 0.967743 0.0736178 0.161275 0.075345 0.164538 0.134027 
0.157579 0.073175 0.208753 0.0593228 0.151614 0.145705 0.211187 0.101456 0.12153 
0.116622 0.149871 0.107427 0.459663 0.0666085 0.484589 0.0841691 0.175446 0.0921452 
0.665116 0.0686475 0.203074 0.0772681 0.152165 0.127873 0.188988 0.083718 0.173039 
0.0842276 0.447543 0.0889996 0.143809 0.135953 0.131184 0.115794 0.186189 0.0855874 
0.16385 0.156067 0.164099 0.130494 0.228364 0.100254 0.180367 0.118277 0.118225 
0.109943 0.724968 0.0896287 0.663209 0.0903923 0.216597 0.0789244 0.725481 0.09319 
0.662648 0.0951143 0.124841 0.113291 0.790848 0.0883762 0.179877 0.15491 0.193506 
0.103612 0.149434 0.115098 0.244148 0.108985 0.595975 0.0836936 0.159687 0.127152 
0.174344 0.0958428 0.161612 0.0959769 0.219236 0.109369 0.668801 0.0985635 0.132818 
0.124867 0.170621 0.158006 0.371052 0.104423 0.260375 0.126114 0.146286 0.140935 
0.128891 0.119608 0.208083 0.192032 0.1737 0.153065 0.188669 0.160498 0.471321 
0.0922364 0.193412 0.167593 
