# vtk DataFile Version 3.0
Tree
ASCII
DATASET POLYDATA
POINTS 200 float
0 0 0
-0.528214 -0.435991 0
-0.264107 -0.217996 0
-0.384676 -3.11253 0
-0.324391 -1.66526 0
2.15158 -3.78018 0
-0.132053 -0.108998 0
1.38232 -0.58899 0
0.913594 -2.72272 0
1.64988 -2.44803 0
0.294601 -2.19399 0
0.272833 -2.88238 0
-0.294249 -0.941629 0
-1.39739 -1.23536 0
-0.84582 -1.08849 0
-0.969046 -1.57624 0
-1.1216 -1.16193 0
-1.1442 -0.608973 0
-1.1329 -0.88545 0
-1.94909 -0.0895458 0
0.625133 -0.348994 0
1.07527 -0.904323 0
-1.541 -0.487498 0
-1.92344 -0.915245 0
-0.354534 -2.3889 0
-1.31609 -2.33727 0
-0.369605 -2.75071 0
0.233966 -4.11254 0
-0.835312 -2.36308 0
-1.06086 -2.70286 0
1.28174 -2.58538 0
1.74517 -1.5603 0
1.53259 -3.25145 0
1.06866 -4.1702 0
-0.948086 -2.53297 0
-1.62235 -3.59639 0
-1.0757 -2.35018 0
-2.21337 -2.17907 0
-1.28522 -3.06468 0
-1.17045 -4.34081 0
-1.45378 -3.33054 0
-1.85958 -3.48939 0
-1.73222 -0.701371 0
-2.00379 -0.705735 0
-0.907433 -1.33237 0
-1.20302 -1.72512 0
0.850202 -0.626658 0
0.419899 -0.806649 0
-1.65668 -3.40996 0
-1.95182 -3.06664 0
0.962736 -0.765491 0
1.84094 -0.883477 0
1.30062 -3.71083 0
1.37619 -4.11001 0
1.18464 -3.94051 0
0.700174 -4.32637 0
-1.22783 -3.70275 0
-0.875219 -4.43738 0
0.942408 -4.13344 0
0.703485 -3.84012 0
1.00373 -0.468992 0
1.24104 -0.031216 0
-1.74504 -0.288522 0
-1.92262 -0.442014 0
0.81443 -0.408993 0
0.768495 -0.131822 0
-1.19914 -4.02178 0
-2.19775 -4.45443 0
-0.279178 -0.579812 0
0.146892 -0.691946 0
1.12238 -0.250104 0
1.89342 -0.194067 0
-1.2595 -1.19864 0
-1.73843 -1.61713 0
-1.82783 -0.808308 0
-1.66959 -1.01764 0
1.84208 -3.51582 0
2.14409 -3.32642 0
-1.05153 -4.07006 0
-0.633991 -4.16291 0
-0.891699 -2.44803 0
-0.693436 -2.67649 0
-0.339463 -2.02708 0
-0.535696 -1.7091 0
-0.30932 -1.30345 0
-0.0807855 -1.3638 0
0.822946 -3.98678 0
0.831756 -3.62147 0
-1.69845 -4.2381 0
-1.57571 -3.94023 0
-1.64454 -2.26462 0
-2.01621 -2.00846 0
-0.0678194 -3.43163 0
0.329691 -3.63561 0
1.40184 -0.824484 0
2.23126 -0.976075 0
1.99309 -3.42112 0
1.92664 -3.2242 0
0.0830733 -3.77208 0
-0.454205 -3.64375 0
1.81655 -0.900279 0
1.81024 -1.15196 0
0.604098 -2.45836 0
0.777868 -2.85161 0
0.690983 -2.65498 0
0.606921 -3.20785 0
1.019 -0.834907 0
0.8972 -1.41707 0
1.51345 -2.07284 0
1.79578 -1.93285 0
-1.25653 -3.38371 0
-0.736906 -3.43563 0
0.958101 -1.12599 0
0.824863 -1.71367 0
1.33841 -3.91042 0
1.7316 -4.17372 0
-1.74871 -0.912974 0
-1.79205 -1.18343 0
1.81339 -1.02612 0
1.94919 -1.45139 0
-1.49896 -1.40789 0
-1.53538 -1.79308 0
-1.36012 -2.3074 0
-1.39441 -1.95207 0
0.891482 -1.41983 0
0.425055 -1.61854 0
0.858173 -1.56675 0
1.11701 -1.64871 0
1.46581 -2.5167 0
2.04139 -2.63248 0
-0.37714 -2.93162 0
-0.66921 -3.07088 0
-0.218712 -3.09117 0
0.0560599 -2.98615 0
0.924792 -1.27291 0
0.66951 -1.10929 0
-1.6187 -1.51251 0
-2.1515 -1.53771 0
-0.570034 -1.01506 0
-0.610007 -1.28918 0
0.44935 -2.32617 0
0.784752 -2.15982 0
0.24654 -0.228996 0
0.116255 -0.384853 0
-1.64302 -0.38801 0
-1.55239 -0.1471 0
-1.32844 -1.217 0
-1.4391 -0.99266 0
0.827351 -3.80413 0
0.709937 -3.40677 0
0.15852 -3.94231 0
-0.0286978 -4.35038 0
-0.301785 -1.12254 0
-0.0783042 -0.965199 0
-1.11665 -2.79883 0
-1.35049 -2.73892 0
2.0239 -0.938177 0
1.99744 -0.547058 0
0.63505 -0.716654 0
0.449415 -0.58127 0
-0.707927 -1.05178 0
-0.683719 -0.825657 0
-1.03237 -2.6659 0
-0.886542 -2.93873 0
-1.13855 -0.747212 0
-0.964688 -0.343252 0
-0.316856 -1.48435 0
-0.0985619 -1.61044 0
1.99683 -3.648 0
2.02243 -4.09735 0
1.535 -4.04207 0
1.80391 -4.39877 0
1.7536 -2.57459 0
1.8268 -2.7821 0
0.283717 -2.53819 0
-0.00830061 -2.57684 0
-1.13573 -0.816331 0
-0.924965 -0.825455 0
1.60919 -0.862382 0
1.49031 -1.046 0
1.7902 -2.67835 0
1.6682 -2.97135 0
2.01067 -0.742618 0
2.22622 -0.241753 0
1.66946 -4.22042 0
1.43522 -4.33079 0
-1.05162 -0.545232 0
-0.754066 -0.407629 0
0.821291 -4.22991 0
0.582465 -4.13007 0
1.88129 -1.23875 0
2.16829 -1.51267 0
-1.87563 -0.861777 0
-2.16317 -1.08622 0
-0.294159 -2.92094 0
-0.101083 -2.8124 0
0.130936 -3.53362 0
0.327891 -3.37906 0
1.65462 -2.00284 0
1.98705 -2.01656 0
LINES 199 597
2 2 1
2 6 2
2 130 3
2 166 4
2 168 5
2 0 6
2 60 7
2 102 8
2 128 9
2 4 10
2 174 11
2 68 12
2 146 13
2 160 14
2 44 15
2 14 16
2 164 17
2 16 18
2 62 19
2 142 20
2 106 21
2 18 22
2 192 23
2 82 24
2 36 25
2 24 26
2 150 27
2 24 28
2 34 29
2 8 30
2 108 31
2 8 32
2 54 33
2 80 34
2 40 35
2 28 36
2 90 37
2 154 38
2 66 39
2 38 40
2 48 41
2 22 42
2 42 43
2 14 44
2 44 45
2 20 46
2 158 47
2 40 48
2 48 49
2 46 50
2 94 51
2 32 52
2 114 53
2 52 54
2 188 55
2 110 56
2 78 57
2 54 58
2 86 59
2 64 60
2 70 61
2 144 62
2 62 63
2 20 64
2 64 65
2 56 66
2 88 67
2 2 68
2 68 69
2 60 70
2 70 71
2 16 72
2 136 73
2 42 74
2 116 75
2 32 76
2 96 77
2 56 78
2 78 79
2 28 80
2 80 81
2 4 82
2 82 83
2 152 84
2 84 85
2 58 86
2 148 87
2 66 88
2 88 89
2 122 90
2 90 91
2 132 92
2 196 93
2 50 94
2 156 95
2 76 96
2 96 97
2 92 98
2 98 99
2 178 100
2 118 101
2 140 102
2 104 103
2 102 104
2 104 105
2 50 106
2 112 107
2 30 108
2 198 109
2 38 110
2 110 111
2 106 112
2 126 113
2 52 114
2 170 115
2 74 116
2 116 117
2 100 118
2 190 119
2 72 120
2 120 121
2 36 122
2 122 123
2 134 124
2 124 125
2 124 126
2 126 127
2 30 128
2 172 129
2 26 130
2 130 131
2 194 132
2 132 133
2 112 134
2 134 135
2 120 136
2 136 137
2 12 138
2 138 139
2 10 140
2 140 141
2 6 142
2 142 143
2 22 144
2 144 145
2 72 146
2 146 147
2 86 148
2 148 149
2 98 150
2 150 151
2 12 152
2 152 153
2 162 154
2 154 155
2 100 156
2 182 157
2 46 158
2 158 159
2 138 160
2 160 161
2 34 162
2 162 163
2 176 164
2 186 165
2 84 166
2 166 167
2 76 168
2 168 169
2 114 170
2 184 171
2 128 172
2 180 173
2 10 174
2 174 175
2 18 176
2 176 177
2 94 178
2 178 179
2 172 180
2 180 181
2 156 182
2 182 183
2 170 184
2 184 185
2 164 186
2 186 187
2 58 188
2 188 189
2 118 190
2 190 191
2 74 192
2 192 193
2 26 194
2 194 195
2 92 196
2 196 197
2 108 198
2 198 199
CELL_DATA 199
SCALARS radius float
LOOKUP_TABLE default
0.246249
1.51798
0.278863
1.39265
0.35305
1.61878
0.301777
1.07517
0.292835
1.11768
0.323295
1.51307
0.213562
0.884835
0.278861
0.859631
0.248952
0.782256
0.366794
0.901711
0.205463
0.717733
0.279468
1.08689
0.279136
0.732796
0.353522
0.962074
0.259759
0.709534
0.419507
0.960336
0.343702
0.881364
0.344183
0.56779
0.40862
0.852617
0.368947
0.53908
0.348811
0.623913
0.342029
0.386033
0.329709
0.845458
0.289073
0.487543
0.418788
0.822433
0.323508
0.874072
0.325988
0.750753
0.372471
0.744718
0.420866
0.725929
0.377123
0.480195
0.292131
0.451452
0.34942
0.50506
0.26259
0.639199
0.501247
1.51581
0.266166
0.436635
0.387785
0.53896
0.28975
0.587575
0.339519
0.601727
0.353903
0.53352
0.426012
0.891037
0.283519
1.09274
0.275122
1.39728
0.235224
0.634047
0.413436
0.595277
0.439686
0.50015
0.384591
0.663209
0.34721
0.706982
0.320079
0.454783
0.367754
0.588926
0.420937
0.666923
0.275406
1.09383
0.278488
0.403796
0.353678
0.587639
0.299574
0.565497
0.338799
0.773705
0.368725
0.579145
0.315478
0.625432
0.372405
0.474908
0.40811
0.513766
0.356158
0.495777
0.333926
0.544348
0.33076
0.513998
0.381578
0.431312
0.365529
0.560799
0.369258
0.380764
0.322422
0.682994
0.299608
0.551089
0.31605
0.439035
0.392135
0.897038
0.248021
1.10037
0.287001
0.906187
0.222213
0.502474
0.326655
0.326159
0.292232
0.586031
0.50735
0.506157
0.44053
1.39969
0.241899
0.862623
0.280532
0.544042
0.343857
0.363531
0.287996
0.890673
0.239888
0.873777
0.293275
0.447809
0.316345
1.39505
0.241082
0.498407
0.430535
0.594397
0.42133
0.53281
0.315487
0.399679
0.310914
0.477611
0.267535
0.68364
0.283855
0.46556
0.41116
0.504276
0.444083
0.54102
0.437193
0.420534
0.349558
0.503505
0.423532
0.485903
0.411232
0.457483
0.419682
0.696788
0.270061
0.443867
0.357243
0.474762
0.40841
