# vtk DataFile Version 3.0
Tree
ASCII
DATASET POLYDATA
POINTS 200 float
0 0 0
-0.384676 -3.11253 0
-0.192338 -1.55627 0
2.15158 -3.78018 0
-0.096169 -0.778133 0
1.38232 -0.58899 0
-0.0480845 -0.389066 0
-1.39739 -1.23536 0
-0.0240423 -0.194533 0
-1.94909 -0.0895458 0
-0.144254 -1.1672 0
-1.31609 -2.33727 0
-0.288507 -2.3344 0
0.233966 -4.11254 0
0.643076 -0.683561 0
1.74517 -1.5603 0
-0.336592 -2.72346 0
-1.62235 -3.59639 0
-0.979471 -3.15993 0
-0.875219 -4.43738 0
-1.30091 -3.37816 0
-2.19775 -4.45443 0
-0.0272705 -3.22347 0
1.06866 -4.1702 0
-0.730172 -1.75223 0
-2.21337 -2.17907 0
1.0127 -0.636276 0
2.16614 -0.0160039 0
1.19751 -0.612633 0
2.23126 -0.976075 0
-0.722737 -0.812213 0
-2.16317 -1.08622 0
0.979621 -2.66822 0
2.04139 -2.63248 0
-1.47177 -1.96565 0
-1.90441 -2.83118 0
1.5656 -3.2242 0
1.80391 -4.39877 0
-0.120211 -0.972666 0
0.503741 -1.32389 0
0.393642 -2.11224 0
1.06409 -2.06994 0
-0.360634 -2.918 0
-0.454205 -3.64375 0
0.103348 -3.668 0
-0.278893 -4.16729 0
-0.0120211 -0.0972666 0
0.768495 -0.131822 0
-1.46163 -3.48727 0
-2.07766 -3.34428 0
1.19412 -1.12193 0
1.98705 -2.01656 0
0.686631 -2.39023 0
0.487936 -2.80474 0
-1.44295 -0.949217 0
-2.1515 -1.53771 0
0.918599 -0.902746 0
1.11701 -1.64871 0
0.378237 -0.114544 0
1.24104 -0.031216 0
1.59059 -1.56925 0
1.63045 -2.20207 0
-1.74933 -3.91629 0
-1.46104 -4.19358 0
1.78882 -1.7929 0
2.16829 -1.51267 0
-1.52512 -3.64723 0
-2.16372 -3.7795 0
0.587284 -2.59749 0
0.606921 -3.20785 0
-0.658031 -2.9417 0
-1.06086 -2.70286 0
0.520695 -3.69683 0
0.700174 -4.32637 0
1.68476 -3.81149 0
1.32147 -3.86878 0
-1.08285 -0.880715 0
-1.92262 -0.442014 0
1.74433 -4.10513 0
1.43522 -4.33079 0
-1.14019 -3.26904 0
-1.37646 -2.96604 0
-1.68809 -2.39842 0
-2.21176 -2.90593 0
-0.240423 -1.94533 0
-0.604702 -2.296 0
1.85859 -3.50219 0
2.14409 -3.32642 0
-1.79723 -1.24346 0
-1.73843 -1.61713 0
-1.25833 -3.11754 0
-1.6943 -3.06693 0
1.71438 -0.794354 0
1.99744 -0.547058 0
0.100652 -1.83425 0
0.425055 -1.61854 0
-0.0877726 -3.91765 0
-0.0286978 -4.35038 0
-0.927345 -3.79865 0
-1.21209 -3.99528 0
1.27261 -2.94621 0
1.26606 -3.57073 0
-1.06006 -1.02379 0
-1.1434 -1.45798 0
1.46965 -1.34112 0
1.81024 -1.15196 0
0.247147 -1.97325 0
0.824863 -1.71367 0
1.12612 -2.80722 0
0.888672 -3.04965 0
-0.901282 -4.11802 0
-1.17045 -4.34081 0
-1.10173 -1.24088 0
-1.42589 -1.52658 0
-1.50273 -0.661364 0
-2.23103 -0.0255321 0
1.41911 -3.08521 0
1.6682 -2.97135 0
-0.902791 -0.846464 0
-0.8892 -0.563847 0
-0.914313 -3.95834 0
-0.633991 -4.16291 0
0.246712 -3.46015 0
0.831756 -3.62147 0
1.71454 -3.95831 0
2.02243 -4.09735 0
0.780837 -0.793154 0
0.66951 -1.10929 0
-0.10819 -0.875399 0
-0.450345 -0.94615 0
-1.47631 -3.09224 0
-1.95182 -3.06664 0
-1.71268 -0.551689 0
-2.00379 -0.705735 0
-0.88825 -4.2777 0
-0.642275 -4.46306 0
1.33188 -1.23152 0
1.49031 -1.046 0
-0.183333 -4.04247 0
-0.446191 -3.98704 0
1.58942 -0.32614 0
2.22622 -0.241753 0
0.168657 -3.89027 0
0.449027 -4.32766 0
-0.157889 -2.77893 0
0.272833 -2.88238 0
-0.859446 -2.82228 0
-0.993822 -2.47743 0
-0.960153 -2.76257 0
-1.35049 -2.73892 0
-0.437213 -1.45972 0
-0.610007 -1.28918 0
0.320394 -2.04275 0
0.351666 -2.36978 0
1.50311 -3.84013 0
1.37619 -4.11001 0
0.0380386 -3.44574 0
-0.172533 -3.66571 0
-1.84257 -2.07236 0
-2.00115 -2.3325 0
-0.497311 -2.83258 0
-0.693436 -2.67649 0
-0.818751 -3.05081 0
-0.736906 -3.43563 0
-0.583692 -1.60598 0
-0.969046 -1.57624 0
-0.953408 -3.47929 0
-1.19113 -3.71102 0
0.833126 -2.52923 0
1.31327 -2.45092 0
-1.97354 -4.18536 0
-2.21746 -4.12809 0
-1.36732 -3.10489 0
-1.6028 -2.71445 0
-0.385411 -0.60064 0
-0.528214 -0.435991 0
-0.456812 -0.518315 0
-0.754066 -0.407629 0
0.827887 -0.659918 0
0.838022 -0.445604 0
1.0732 -2.49007 0
1.43174 -2.2692 0
1.7121 -3.3632 0
1.92664 -3.2242 0
0.536005 -1.84346 0
0.626004 -1.58335 0
-1.38127 -3.43272 0
-1.55456 -3.27427 0
-0.992818 -0.863589 0
-1.1442 -0.608973 0
1.51051 -2.65035 0
1.64988 -2.44803 0
-0.605439 -0.462972 0
-0.964688 -0.343252 0
-0.223198 -2.55667 0
-0.00830061 -2.57684 0
-0.940376 -3.63897 0
-0.73186 -3.79096 0
0.906374 -2.59873 0
0.777868 -2.85161 0
LINES 199 597
2 42 1
2 10 2
2 86 3
2 6 4
2 28 5
2 8 6
2 102 7
2 46 8
2 8 9
2 38 10
2 24 11
2 84 12
2 142 13
2 4 14
2 104 15
2 12 16
2 48 17
2 162 18
2 134 19
2 80 20
2 170 21
2 144 22
2 72 23
2 164 24
2 158 25
2 178 26
2 140 27
2 26 28
2 92 29
2 174 30
2 54 31
2 198 32
2 190 33
2 24 34
2 82 35
2 116 36
2 78 37
2 128 38
2 38 39
2 152 40
2 40 41
2 16 42
2 42 43
2 156 44
2 138 45
2 0 46
2 58 47
2 186 48
2 48 49
2 56 50
2 64 51
2 40 52
2 68 53
2 76 54
2 88 55
2 126 56
2 56 57
2 46 58
2 58 59
2 50 60
2 60 61
2 66 62
2 62 63
2 60 64
2 64 65
2 20 66
2 66 67
2 52 68
2 68 69
2 160 70
2 148 71
2 122 72
2 72 73
2 36 74
2 154 75
2 188 76
2 132 77
2 124 78
2 78 79
2 18 80
2 90 81
2 34 82
2 82 83
2 2 84
2 84 85
2 182 86
2 86 87
2 54 88
2 88 89
2 80 90
2 130 91
2 28 92
2 92 93
2 2 94
2 94 95
2 44 96
2 96 97
2 196 98
2 98 99
2 108 100
2 100 101
2 30 102
2 112 103
2 136 104
2 104 105
2 94 106
2 184 107
2 32 108
2 108 109
2 120 110
2 110 111
2 102 112
2 112 113
2 76 114
2 114 115
2 100 116
2 116 117
2 30 118
2 118 119
2 98 120
2 120 121
2 22 122
2 122 123
2 74 124
2 124 125
2 14 126
2 126 127
2 4 128
2 128 129
2 172 130
2 130 131
2 114 132
2 132 133
2 110 134
2 134 135
2 50 136
2 136 137
2 96 138
2 138 139
2 26 140
2 140 141
2 44 142
2 142 143
2 194 144
2 144 145
2 70 146
2 146 147
2 146 148
2 148 149
2 10 150
2 150 151
2 106 152
2 152 153
2 74 154
2 154 155
2 22 156
2 156 157
2 34 158
2 158 159
2 16 160
2 160 161
2 70 162
2 162 163
2 150 164
2 164 165
2 18 166
2 166 167
2 52 168
2 180 169
2 62 170
2 170 171
2 90 172
2 172 173
2 6 174
2 176 175
2 174 176
2 192 177
2 14 178
2 178 179
2 168 180
2 180 181
2 36 182
2 182 183
2 106 184
2 184 185
2 20 186
2 186 187
2 118 188
2 188 189
2 32 190
2 190 191
2 176 192
2 192 193
2 12 194
2 194 195
2 166 196
2 196 197
2 168 198
2 198 199
CELL_DATA 199
SCALARS radius float
LOOKUP_TABLE default
0.879042
4.6827
1.36935
5.16702
0.846038
5.38416
1.04233
5.40663
1.25197
4.85277
1.15723
3.98873
1.11574
2.80431
1.14454
3.51188
1.02064
3.28012
1.22425
2.4989
1.50698
2.64654
1.41394
2.17219
1.25995
2.05734
1.28094
1.65517
1.30847
2.52968
1.22018
3.01415
1.34177
2.05667
1.28635
2.69848
1.41915
4.86724
1.00835
3.26137
1.0886
1.35785
1.22189
2.16226
1.15443
5.43208
0.926663
1.53827
1.37096
2.19557
1.21843
3.22043
0.94842
1.77992
1.27073
2.2937
1.1405
1.3089
1.13099
1.87303
1.30352
2.03237
1.32197
1.63318
1.36571
2.21663
1.35659
1.38008
1.21088
3.42338
0.888313
1.75955
1.37872
2.37867
1.24192
2.22379
1.08128
1.84615
1.5087
2.80728
0.964109
1.71271
1.4253
4.00795
0.973151
1.68695
1.30707
1.56354
1.20973
1.8681
1.09803
1.57794
1.19083
3.37076
0.918215
1.83462
1.32704
2.20804
1.17958
2.82514
1.22163
1.56181
1.00302
1.46075
1.17389
3.34789
1.03389
2.86892
1.02112
1.93107
1.33332
1.38855
1.18597
1.74988
1.35273
2.74685
1.02462
2.31325
0.8731
2.08959
1.24354
1.94466
1.23998
2.06381
1.35688
2.33966
0.904508
4.87554
0.839193
1.54539
1.33268
1.42325
1.17417
1.69045
1.44157
1.58909
0.964003
1.56568
1.31991
1.61002
1.2748
1.57867
1.36537
2.69537
1.01482
1.55191
1.09273
1.34495
1.2009
2.26364
0.811964
3.28424
0.902444
1.6713
1.4015
2.23623
1.02389
1.54326
1.18769
3.44287
0.883278
3.31359
1.02962
2.22827
0.933868
2.3614
1.07593
3.13363
1.00568
1.82561
1.38593
1.77825
1.24555
2.62716
0.679767
1.24815
0.823373
2.09888
0.813403
1.36661
1.15359
1.83621
1.11611
1.28057
0.998266
1.67663
1.02381
2.27102
0.894453
1.55644
1.10652
1.17696
1.0235
2.72107
0.826949
2.28447
1.04981
3.04448
0.941628
