# vtk DataFile Version 3.0
Tree
ASCII
DATASET POLYDATA
POINTS 400 float
0 0 0
0.142441 -0.588341 0
0.0712205 -0.294171 0
-0.421725 -0.621031 0
0.106831 -0.441256 0
-0.136518 -1.20868 0
0.124636 -0.514798 0
0.585996 -1.10214 0
-0.175252 -0.457601 0
-0.715283 -1.02271 0
-0.0148437 -0.824969 0
0.174746 -1.71004 0
-0.075681 -1.01683 0
-0.589161 -1.65115 0
0.0890256 -0.367713 0
0.816883 -0.476157 0
0.0799512 -1.26751 0
0.901419 -1.59582 0
0.127349 -1.48877 0
-0.240695 -2.15352 0
-0.332421 -1.33399 0
-1.09292 -1.46402 0
0.151047 -1.59941 0
0.592828 -2.2627 0
-0.712673 -1.399 0
-0.913016 -2.15372 0
0.355316 -0.808469 0
1.21455 -1.1556 0
-0.056673 -1.82115 0
0.00539448 -2.71882 0
-0.445268 -0.740158 0
-1.15253 -0.724129 0
-0.0256393 -2.26999 0
-0.571863 -2.56706 0
0.371938 -1.93105 0
1.24277 -2.28897 0
-0.902799 -1.43151 0
-1.50248 -1.79304 0
0.482383 -2.09688 0
0.729173 -2.96432 0
-0.298751 -2.41852 0
-0.589564 -3.11862 0
0.784932 -0.982035 0
1.50104 -1.65733 0
-0.812845 -1.77636 0
-1.26477 -2.62219 0
-0.0101224 -2.4944 0
0.269467 -3.24578 0
0.605778 -2.5306 0
1.26739 -2.95407 0
-0.997861 -1.44777 0
-1.65947 -1.12049 0
0.99974 -1.06882 0
1.38002 -0.687358 0
0.129672 -2.87009 0
-0.0205181 -3.72119 0
0.199569 -3.05793 0
0.735729 -3.59145 0
0.936583 -2.74233 0
1.76793 -2.58003 0
-0.444158 -2.76857 0
-1.2887 -3.29789 0
-1.20264 -1.61227 0
-1.92701 -2.33115 0
0.054577 -3.29564 0
-0.610813 -3.96582 0
1.10714 -1.11221 0
1.81931 -1.10031 0
1.10199 -2.8482 0
1.59606 -3.44219 0
-1.03881 -2.19927 0
-1.87578 -3.03949 0
-0.866429 -3.03323 0
-1.19942 -3.86902 0
1.16085 -1.13391 0
2.16572 -1.99571 0
0.0170294 -3.50841 0
0.0259998 -4.37803 0
0.467649 -3.32469 0
0.761556 -4.28815 0
0.0356102 -0.147085 0
-0.828942 -0.174547 0
-1.35256 -1.70265 0
-2.13931 -1.64463 0
0.614602 -3.80642 0
1.37507 -4.06418 0
1.35226 -2.66118 0
2.29302 -2.678 0
0.0215146 -3.94322 0
-0.615085 -4.64824 0
-1.03293 -3.45112 0
-2.02129 -3.6129 0
-1.52711 -3.53201 0
-1.45647 -4.34593 0
-1.45729 -2.61938 0
-2.41345 -2.86171 0
0.0237572 -4.16063 0
0.455001 -4.86887 0
1.34902 -3.1452 0
2.2895 -3.47704 0
1.81926 -3.31112 0
2.09361 -3.90949 0
0.688079 -4.04729 0
1.26444 -4.68368 0
-1.74593 -1.67364 0
-2.45004 -2.09385 0
0.0248785 -4.26933 0
-0.12939 -5.00324 0
-1.11617 -3.66007 0
-1.10154 -4.96001 0
0.994834 -3.9353 0
1.72844 -4.45562 0
-1.7742 -3.57246 0
-2.16059 -4.17263 0
-0.0522558 -4.63629 0
-0.592976 -5.28416 0
1.66328 -1.56481 0
2.37229 -1.41727 0
-1.96739 -3.87254 0
-2.56843 -3.62237 0
1.82264 -2.66959 0
2.74065 -2.95921 0
-1.10886 -4.31004 0
-1.67675 -4.9211 0
0.976261 -4.36548 0
1.14494 -5.26724 0
0.239379 -4.51475 0
0.536108 -5.40018 0
-0.0908229 -4.81976 0
0.0912025 -5.5004 0
1.9145 -1.78026 0
2.72455 -2.10237 0
1.12035 -4.52458 0
1.88328 -4.97748 0
1.36164 -4.19546 0
2.28426 -4.38882 0
2.05438 -3.39408 0
2.63487 -3.8782 0
-1.3928 -4.61557 0
-1.23122 -5.5822 0
-2.06399 -4.02258 0
-2.34802 -4.79595 0
-2.11229 -4.09761 0
-2.65835 -4.29458 0
-2.26791 -3.74746 0
-2.96115 -3.27688 0
-0.322616 -4.96022 0
-0.580209 -5.88724 0
0.000189817 -5.16008 0
0.639568 -6.04286 0
1.50181 -4.75103 0
1.79636 -5.58077 0
0.0456962 -5.33024 0
-0.128866 -6.1913 0
-1.94262 -1.65913 0
-2.3397 -1.0937 0
-1.32867 -1.28413 0
-1.74006 -0.556069 0
-2.04096 -1.65188 0
-3.07666 -2.59111 0
1.64909 -5.1659 0
2.44865 -5.21195 0
2.34463 -3.63614 0
3.16628 -3.54145 0
-1.53477 -4.76833 0
-1.9899 -5.69004 0
2.48975 -3.75717 0
2.95938 -4.44533 0
-2.41817 -3.68491 0
-3.15833 -3.8364 0
1.72272 -5.37333 0
1.2418 -6.06357 0
2.28165 -2.8144 0
3.13255 -2.5949 0
-1.31201 -5.09888 0
-1.5158 -6.25453 0
-1.76234 -5.22918 0
-2.6265 -5.37549 0
0.319879 -5.60147 0
0.499425 -6.62151 0
-2.206 -4.40927 0
-2.87241 -4.85325 0
-0.0415848 -5.76077 0
-0.796305 -6.41474 0
1.48226 -5.71845 0
2.05562 -6.1007 0
1.75954 -5.47705 0
2.3643 -5.75415 0
-0.418945 -6.08775 0
-0.117486 -6.88009 0
0.409652 -6.11149 0
1.02905 -6.76331 0
-2.09013 -1.64825 0
-2.68009 -1.43965 0
2.75545 -3.58879 0
3.41523 -3.93793 0
1.46323 -1.10626 0
1.92622 -0.58478 0
2.04887 -5.18892 0
3.04992 -5.04877 0
2.96086 -3.56512 0
3.48521 -3.04471 0
-2.38532 -4.19609 0
-3.09792 -4.28987 0
-1.87612 -5.45961 0
-2.06333 -6.3363 0
-2.61453 -3.51217 0
-3.56717 -3.30728 0
-0.268216 -6.48392 0
-1.2278 -6.95989 0
-1.96973 -5.89795 0
-2.59283 -6.1193 0
1.76894 -5.90958 0
1.77184 -6.71389 0
0.454538 -6.3665 0
0.390531 -7.23781 0
2.31952 -1.94131 0
2.96699 -1.60091 0
-2.53921 -4.63126 0
-3.19336 -5.50771 0
2.06192 -5.6156 0
2.50407 -6.38091 0
2.21311 -5.68487 0
3.04044 -5.80235 0
2.72456 -4.10125 0
3.55514 -4.58171 0
2.52204 -2.02184 0
3.26901 -2.05317 0
-2.28128 -6.00863 0
-2.06936 -6.9277 0
-2.74162 -4.24298 0
-3.62725 -4.63262 0
0.71935 -6.4374 0
1.27611 -7.40568 0
-0.192851 -6.68201 0
-0.399322 -7.46696 0
-2.55881 -2.1215 0
-3.29713 -1.85963 0
0.997731 -6.92154 0
1.76748 -7.2592 0
-0.74801 -6.72191 0
-1.14124 -7.57607 0
-2.81774 -2.35631 0
-3.65873 -2.7793 0
-2.91977 -4.26642 0
-3.79783 -3.95524 0
0.858541 -6.67947 0
0.511484 -7.8175 0
2.54939 -5.11885 0
3.62214 -5.30211 0
-2.43706 -6.06396 0
-3.37688 -6.01585 0
2.28299 -5.99826 0
2.3842 -7.11546 0
-2.17532 -6.46816 0
-2.50819 -7.01781 0
-2.34176 -6.74299 0
-1.93295 -7.51366 0
3.08534 -3.76336 0
3.95075 -3.80897 0
-0.296087 -7.07448 0
-0.201486 -8.02727 0
2.39353 -6.18959 0
3.20844 -6.38386 0
-0.944624 -7.14899 0
-1.57114 -7.22518 0
2.80098 -6.28672 0
2.95616 -6.88685 0
-3.18444 -4.4378 0
-3.96387 -5.08827 0
-2.51494 -6.09163 0
-3.10182 -6.74557 0
-1.04293 -7.36253 0
-1.5585 -7.94104 0
-0.248786 -7.55088 0
-0.67505 -7.90292 0
1.38261 -7.09037 0
1.90556 -7.85882 0
3.00471 -6.33529 0
3.65223 -5.93354 0
-1.09209 -7.4693 0
-0.986752 -8.24052 0
3.08577 -5.21048 0
4.0629 -4.86847 0
1.13692 -7.16361 0
1.32555 -7.91871 0
3.22304 -3.30492 0
4.0345 -3.01149 0
1.23124 -7.54116 0
0.807675 -8.27722 0
-0.225136 -7.78908 0
0.215501 -8.42712 0
3.62877 -3.1582 0
3.90136 -2.5416 0
-0.213311 -7.90817 0
-0.398284 -8.57496 0
-2.80838 -6.4186 0
-3.65569 -6.56299 0
3.51805 -3.78617 0
4.23209 -4.28509 0
1.64408 -7.47459 0
2.54123 -7.67621 0
-2.9551 -6.58208 0
-2.90726 -7.53088 0
3.35396 -5.25629 0
4.16039 -5.58367 0
1.2784 -7.72994 0
1.72616 -8.40219 0
-3.3588 -4.11083 0
-4.27772 -4.26056 0
3.10657 -6.35958 0
3.503 -6.96915 0
-3.57415 -4.76304 0
-4.05299 -5.86707 0
-3.57831 -4.03303 0
-4.12974 -3.23147 0
-0.993778 -7.25576 0
-2.00917 -8.33985 0
1.78889 -1.67254 0
1.68948 -2.13404 0
-1.53437 -0.9201 0
-2.22311 -0.611634 0
3.32847 -6.13442 0
3.99093 -6.42606 0
2.90285 -6.31101 0
3.19798 -7.66722 0
1.69472 -0.84552 0
2.48522 -0.786302 0
-1.03942 -7.85491 0
-1.56263 -8.78519 0
-2.93118 -7.05648 0
-3.58085 -7.30193 0
-1.30102 -8.32005 0
-0.884452 -9.04008 0
1.01946 -7.90919 0
1.11049 -8.97786 0
-0.00481751 -8.1081 0
0.252571 -9.10462 0
-3.76901 -4.92566 0
-4.53072 -5.34544 0
2.01778 -1.49104 0
2.92114 -1.11531 0
2.09265 -7.5754 0
2.71424 -8.15725 0
3.87507 -4.03563 0
4.51832 -3.85203 0
1.50228 -8.06607 0
2.22699 -8.49566 0
-2.91922 -7.29368 0
-3.20168 -8.01599 0
-3.23204 -6.4908 0
-4.1721 -6.45355 0
-2.91324 -7.41228 0
-2.45721 -7.87587 0
0.123877 -8.60636 0
-0.385894 -9.36991 0
3.30479 -6.66436 0
4.08541 -7.10532 0
-2.68523 -7.64407 0
-2.74116 -8.40111 0
-2.92797 -1.99057 0
-3.84315 -1.97064 0
4.19669 -3.94383 0
4.71838 -4.7275 0
1.61422 -8.23413 0
1.70581 -9.1803 0
-3.85403 -3.63225 0
-4.62811 -3.74338 0
-1.09274 -8.68006 0
-1.36018 -9.33145 0
-3.11255 -1.9251 0
-3.29277 -1.35447 0
2.40345 -7.86633 0
3.26756 -8.3967 0
1.06497 -8.44353 0
0.906914 -9.50451 0
3.6597 -6.28024 0
4.7273 -5.97513 0
-1.43183 -8.55262 0
-2.03247 -9.1233 0
1.66001 -8.70722 0
2.38734 -9.1213 0
-3.25602 -7.17921 0
-3.79536 -7.84536 0
-4.14986 -5.13555 0
-4.69966 -6.00355 0
-3.41843 -7.24057 0
-4.2625 -7.28592 0
-0.131009 -8.98813 0
0.0931857 -9.80066 0
-3.23823 -2.5678 0
-4.22375 -2.56876 0
-1.22646 -9.00576 0
-1.03022 -9.7957 0
-3.95944 -5.0306 0
-4.94174 -4.61057 0
3.6951 -6.88484 0
4.09176 -7.81432 0
3.75718 -5.41998 0
4.85951 -5.37942 0
LINES 399 1197
2 6 1
2 80 2
2 8 3
2 14 4
2 12 5
2 4 6
2 26 7
2 2 8
2 30 9
2 4 10
2 22 11
2 10 12
2 20 13
2 2 14
2 14 15
2 10 16
2 16 17
2 16 18
2 28 19
2 12 20
2 50 21
2 18 22
2 38 23
2 20 24
2 44 25
2 6 26
2 74 27
2 18 28
2 46 29
2 8 30
2 30 31
2 28 32
2 40 33
2 22 34
2 34 35
2 24 36
2 82 37
2 34 38
2 48 39
2 32 40
2 60 41
2 26 42
2 42 43
2 24 44
2 70 45
2 32 46
2 56 47
2 38 48
2 68 49
2 36 50
2 156 51
2 42 52
2 52 53
2 46 54
2 76 55
2 54 56
2 78 57
2 48 58
2 86 59
2 40 60
2 72 61
2 36 62
2 62 63
2 54 64
2 64 65
2 52 66
2 196 67
2 58 68
2 98 69
2 44 70
2 94 71
2 60 72
2 108 73
2 66 74
2 130 75
2 64 76
2 106 77
2 56 78
2 102 79
2 0 80
2 80 81
2 62 82
2 192 83
2 78 84
2 110 85
2 58 86
2 120 87
2 76 88
2 88 89
2 72 90
2 112 91
2 90 92
2 92 93
2 70 94
2 94 95
2 88 96
2 126 97
2 68 98
2 136 99
2 98 100
2 100 101
2 84 102
2 132 103
2 82 104
2 104 105
2 96 106
2 128 107
2 90 108
2 122 109
2 84 110
2 134 111
2 92 112
2 142 113
2 106 114
2 146 115
2 74 116
2 340 117
2 112 118
2 168 119
2 86 120
2 172 121
2 108 122
2 164 123
2 102 124
2 124 125
2 96 126
2 126 127
2 114 128
2 152 129
2 318 130
2 226 131
2 124 132
2 150 133
2 110 134
2 134 135
2 100 136
2 166 137
2 122 138
2 174 139
2 118 140
2 180 141
2 140 142
2 202 143
2 118 144
2 206 145
2 114 146
2 146 147
2 128 148
2 178 149
2 132 150
2 186 151
2 148 152
2 182 153
2 104 154
2 154 155
2 50 156
2 320 157
2 154 158
2 242 159
2 150 160
2 198 161
2 136 162
2 200 163
2 138 164
2 204 165
2 162 166
2 224 167
2 144 168
2 168 169
2 160 170
2 184 171
2 120 172
2 172 173
2 138 174
2 174 175
2 164 176
2 176 177
2 148 178
2 214 179
2 140 180
2 218 181
2 152 182
2 188 183
2 170 184
2 212 185
2 170 186
2 222 187
2 182 188
2 234 189
2 178 190
2 232 191
2 158 192
2 192 193
2 162 194
2 258 195
2 66 196
2 326 197
2 160 198
2 248 199
2 194 200
2 286 201
2 142 202
2 244 203
2 176 204
2 210 205
2 144 206
2 206 207
2 188 208
2 240 209
2 204 210
2 270 211
2 184 212
2 212 213
2 190 214
2 214 215
2 130 216
2 216 217
2 180 218
2 218 219
2 186 220
2 262 221
2 220 222
2 222 223
2 166 224
2 224 225
2 216 226
2 226 227
2 210 228
2 254 229
2 202 230
2 268 231
2 190 232
2 284 233
2 208 234
2 260 235
2 158 236
2 370 237
2 246 238
2 276 239
2 208 240
2 280 241
2 236 242
2 390 243
2 230 244
2 314 245
2 232 246
2 246 247
2 198 248
2 304 249
2 228 250
2 250 251
2 220 252
2 252 253
2 228 254
2 256 255
2 254 256
2 256 257
2 194 258
2 298 259
2 234 260
2 294 261
2 252 262
2 310 263
2 240 264
2 264 265
2 262 266
2 266 267
2 230 268
2 338 269
2 250 270
2 302 271
2 316 272
2 272 273
2 260 274
2 274 275
2 238 276
2 300 277
2 324 278
2 322 279
2 272 280
2 328 281
2 248 282
2 282 283
2 238 284
2 306 285
2 200 286
2 292 287
2 284 288
2 334 289
2 274 290
2 336 291
2 286 292
2 292 293
2 290 294
2 294 295
2 270 296
2 350 297
2 258 298
2 344 299
2 276 300
2 342 301
2 296 302
2 352 303
2 282 304
2 398 305
2 288 306
2 364 307
2 244 308
2 308 309
2 278 310
2 356 311
2 268 312
2 312 313
2 308 314
2 366 315
2 264 316
2 316 317
2 116 318
2 318 319
2 156 320
2 320 321
2 278 322
2 376 323
2 266 324
2 324 325
2 196 326
2 326 327
2 280 328
2 378 329
2 302 330
2 386 331
2 328 332
2 368 333
2 288 334
2 374 335
2 290 336
2 354 337
2 312 338
2 384 339
2 116 340
2 340 341
2 300 342
2 372 343
2 298 344
2 362 345
2 306 346
2 346 347
2 330 348
2 348 349
2 296 350
2 350 351
2 348 352
2 358 353
2 336 354
2 388 355
2 310 356
2 396 357
2 352 358
2 358 359
2 236 360
2 360 361
2 344 362
2 362 363
2 346 364
2 380 365
2 314 366
2 366 367
2 332 368
2 392 369
2 360 370
2 370 371
2 342 372
2 372 373
2 334 374
2 374 375
2 322 376
2 376 377
2 332 378
2 378 379
2 364 380
2 380 381
2 330 382
2 382 383
2 394 384
2 384 385
2 382 386
2 386 387
2 354 388
2 388 389
2 242 390
2 390 391
2 368 392
2 392 393
2 338 394
2 394 395
2 356 396
2 396 397
2 304 398
2 398 399
CELL_DATA 399
SCALARS radius float
LOOKUP_TABLE default
0.472087
6.35936
0.704552
6.33898
0.611336
2.3721
0.724345
1.23825
0.845714
6.22626
0.533381
2.81949
0.747995
6.34368
0.827634
6.02724
0.882748
6.02093
0.723876
2.80988
0.554283
3.0368
0.633707
2.7921
0.799792
2.36585
0.493182
5.75154
0.645192
1.15701
0.980959
5.74771
0.702727
3.0313
0.924406
2.59392
0.659098
3.00237
0.79703
4.06973
0.748214
2.343
0.960459
1.62787
0.905959
4.96613
0.63891
2.99293
0.671653
1.45251
0.836632
2.28792
0.845257
4.9625
0.659292
3.54708
0.76091
2.97397
0.853669
4.06274
0.815894
2.43223
1.00804
4.26497
0.946499
2.24879
0.834818
2.78809
0.816945
1.56079
1.07461
4.05426
0.687794
2.04747
0.87643
4.24938
0.570111
3.54016
0.711567
6.36457
0.858016
2.37309
0.530589
3.5284
0.850412
1.66675
0.950736
4.24408
0.968887
4.04321
0.731588
3.11649
0.967584
1.45158
1.2204
4.22718
0.877921
2.77503
0.776621
2.75123
0.969391
3.44253
0.706438
2.35602
1.0063
4.19104
0.667061
3.29666
0.926403
1.46279
0.971586
3.08508
0.59083
4.18752
0.896846
2.03789
0.92577
3.07131
0.761507
1.58849
1.06996
3.28665
0.722311
3.43236
1.00428
1.24305
1.07551
4.14799
0.671681
1.7321
0.938322
3.40346
0.867982
1.35991
1.16907
2.71051
0.782444
3.26193
0.973893
2.89523
0.926861
2.72679
0.811792
1.67539
0.997818
1.27239
1.10209
4.14223
0.9092
3.39329
0.64472
3.37349
0.863545
2.29316
0.984517
1.42509
0.966485
2.231
0.971776
3.37425
0.904467
2.68909
0.833371
3.17499
0.799929
1.5651
1.05343
1.22497
1.11776
3.03518
0.976065
1.46572
1.24374
1.3928
1.21151
3.16247
1.068
3.19717
0.843272
1.58663
1.00774
3.36459
0.916966
1.59306
1.02526
2.88121
0.780781
3.34552
0.775338
3.17247
0.919918
1.04883
1.00146
2.49929
0.976217
1.40762
0.918177
2.18675
1.01484
1.82491
1.04102
2.71751
0.761448
3.12134
0.949981
1.42022
1.23226
3.3224
0.999164
3.10373
0.654219
1.46014
1.2673
1.27906
1.1429
1.65382
1.1732
1.47329
1.29554
2.87041
0.83668
1.27515
1.16898
1.49699
1.29777
1.42745
1.277
3.07377
1.08641
2.69314
0.999335
3.1016
0.874227
2.48252
0.950412
2.15089
0.93542
3.01278
0.991862
2.77522
0.742093
1.73522
1.16263
1.97805
0.916856
3.07438
1.19629
2.1339
0.987459
2.87735
1.19218
2.78395
1.22858
1.73461
1.08116
1.57901
1.38784
2.12045
1.08502
2.45705
0.809283
2.70179
0.76064
2.73136
1.08651
2.67477
1.13218
2.27625
0.944149
2.80745
0.895828
2.54941
1.17258
2.4087
1.08574
2.1452
1.0866
2.46228
1.10772
2.46389
1.04866
2.05448
1.30741
2.59499
0.857345
1.76504
1.22157
2.56148
1.08329
2.3328
1.08562
1.63498
1.36578
1.35834
1.25491
2.79556
1.1431
2.0491
1.18508
2.07206
1.17488
2.60442
0.892932
1.8602
1.22077
2.14931
0.965612
1.9397
1.23295
1.99765
1.11063
2.21014
1.33514
1.75698
1.24217
2.6728
1.36159
1.81689
0.928766
1.32164
1.12023
1.90897
1.1904
2.60537
1.40216
1.30202
1.12745
2.44124
1.11949
2.5686
1.0328
2.37496
1.25373
1.90171
1.27862
2.1679
1.27369
2.03407
1.18304
1.35095
1.18693
1.96724
1.27114
1.94222
1.21292
2.10284
1.31997
2.09666
1.37728
1.6111
1.39044
1.87618
1.26822
2.07307
1.38469
1.96019
1.29461
1.80618
1.56765
1.67816
1.26326
1.78235
1.57105
1.91282
1.34105
1.66947
1.3987
2.05757
1.32847
1.39422
1.23674
1.81627
1.57911
1.77647
1.5206
1.77553
1.57547
1.67327
1.48607
1.82701
1.54482
1.97725
1.44509
1.68817
1.46674
1.67654
1.53414
1.89851
1.61188
1.62701
1.39854
1.88897
1.63811
1.96387
1.40323
1.83331
1.58634
1.76239
1.54035
