# vtk DataFile Version 3.0
Tree
ASCII
DATASET POLYDATA
POINTS 200 float
0 0 0
-0.384676 -3.11253 0
-0.192338 -1.55627 0
2.15158 -3.78018 0
-0.096169 -0.778133 0
1.38232 -0.58899 0
-0.144254 -1.1672 0
-1.39739 -1.23536 0
-0.770822 -1.20128 0
-1.94909 -0.0895458 0
-1.08411 -1.21832 0
-1.31609 -2.33727 0
-0.288507 -2.3344 0
0.233966 -4.11254 0
-0.168296 -1.36173 0
1.74517 -1.5603 0
-0.336592 -2.72346 0
-1.62235 -3.59639 0
-0.360634 -2.918 0
-0.875219 -4.43738 0
-0.617926 -3.67769 0
-2.19775 -4.45443 0
-0.746573 -4.05753 0
1.06866 -4.1702 0
-0.979471 -3.15993 0
-2.21337 -2.17907 0
0.788437 -1.46102 0
2.16614 -0.0160039 0
1.2668 -1.51066 0
2.04139 -2.63248 0
-1.59642 -2.6695 0
-2.16317 -1.08622 0
0.161044 -4.11387 0
1.7316 -4.17372 0
1.50599 -1.53548 0
2.23126 -0.976075 0
-0.0272705 -3.22347 0
0.606921 -3.20785 0
-0.457538 -1.18424 0
-0.754066 -0.407629 0
1.47729 -0.73851 0
1.24104 -0.031216 0
-1.40784 -4.06606 0
-2.16372 -3.7795 0
-1.78578 -3.92278 0
-2.21176 -2.90593 0
1.02762 -1.48584 0
1.06409 -2.06994 0
0.289825 -3.21566 0
0.831756 -3.62147 0
1.35916 -0.384863 0
0.544808 -0.182751 0
0.946322 -4.14379 0
1.26606 -3.57073 0
1.10619 -3.85726 0
0.34297 -2.65292 0
-1.8798 -1.87786 0
-2.00379 -0.705735 0
1.62558 -1.54789 0
2.16829 -1.51267 0
-1.28795 -2.91471 0
-0.824402 -1.94095 0
-1.99877 -3.41435 0
-1.6943 -3.06693 0
1.6541 -2.07157 0
1.31327 -2.45092 0
-1.05617 -2.42783 0
-0.604702 -2.296 0
-0.940288 -2.18439 0
-0.535696 -1.7091 0
1.89693 -1.53028 0
2.14409 -3.32642 0
-1.73811 -2.27368 0
-1.53538 -1.79308 0
0.310071 -1.41137 0
0.66951 -1.10929 0
-0.810896 -4.24746 0
-1.17045 -4.34081 0
1.48368 -2.26124 0
0.630932 -1.93175 0
-1.97475 -3.85114 0
-2.21746 -4.12809 0
1.18613 -3.714 0
2.02243 -4.09735 0
1.86862 -1.25578 0
1.84094 -0.883477 0
-0.605802 -0.795934 0
-0.292865 -0.0144515 0
-1.94179 -1.2918 0
-1.66959 -1.01764 0
-1.97279 -0.998766 0
-2.23103 -0.0255321 0
-1.84653 -3.24064 0
-1.90441 -2.83118 0
1.02626 -4.00053 0
0.703485 -3.84012 0
-1.80569 -1.15472 0
-1.42589 -1.52658 0
1.22609 -3.64236 0
0.777868 -2.85161 0
-0.292765 -4.0857 0
-0.172533 -3.66571 0
1.39848 -2.35608 0
1.6682 -2.97135 0
-0.843057 -4.34242 0
-0.642275 -4.46306 0
1.85478 -1.06963 0
1.99744 -0.547058 0
-1.73764 -1.08618 0
-1.4391 -0.99266 0
-0.830438 -2.36192 0
-0.693436 -2.67649 0
-0.742666 -4.40274 0
-0.0286978 -4.35038 0
-1.35996 -0.645413 0
-1.55239 -0.1471 0
-1.77042 -3.15379 0
-1.55456 -3.27427 0
1.00198 -3.24699 0
0.655258 -2.6506 0
-1.70362 -1.05191 0
-1.78235 -0.703356 0
1.33896 -4.15876 0
1.80391 -4.39877 0
-0.48928 -3.29784 0
-1.19113 -3.71102 0
1.53334 -2.66372 0
1.8268 -2.7821 0
1.84786 -0.976552 0
1.49031 -1.046 0
0.864871 -3.92032 0
0.329691 -3.63561 0
1.05731 -2.0965 0
0.824863 -1.71367 0
-0.385682 -4.37656 0
0.449027 -4.32766 0
0.828619 -2.94879 0
0.351666 -2.36978 0
1.46591 -2.5099 0
1.64988 -2.44803 0
-1.45617 -0.396256 0
-0.964688 -0.343252 0
1.11404 -3.44467 0
1.18454 -3.12636 0
0.590143 -2.65929 0
-0.00830061 -2.57684 0
1.60077 -2.81753 0
1.92664 -3.2242 0
0.48979 -1.26033 0
0.377844 -1.09305 0
1.41823 -0.561686 0
0.838022 -0.445604 0
-1.74298 -0.877633 0
-1.92262 -0.442014 0
0.84412 -2.01412 0
0.425055 -1.61854 0
-0.882345 -2.06267 0
-0.969046 -1.57624 0
1.24608 -3.60655 0
1.50634 -3.65878 0
-1.80895 -2.07577 0
-2.01621 -2.00846 0
1.92611 -0.808342 0
2.22622 -0.241753 0
-1.21043 -0.369754 0
-0.8892 -0.563847 0
0.72458 -3.25509 0
0.272833 -2.88238 0
-1.61579 -1.34065 0
-1.73843 -1.61713 0
-1.3333 -0.383005 0
-1.1442 -0.608973 0
1.25607 -3.58864 0
1.33179 -3.27653 0
-1.52084 -1.43361 0
-1.53332 -2.25155 0
1.44776 -0.650098 0
1.07527 -0.904323 0
-1.04982 -0.466801 0
-0.924965 -0.825455 0
0.0316725 -4.35211 0
0.700174 -4.32637 0
1.29393 -3.43258 0
1.79873 -3.80543 0
0.951986 -0.283807 0
0.116255 -0.384853 0
1.3887 -0.473275 0
1.6571 -0.323464 0
0.748397 -0.233279 0
0.141348 -0.175667 0
-0.68225 -3.86761 0
-0.906554 -4.04698 0
-0.71757 -2.32896 0
-0.407063 -2.0569 0
0.950714 -2.05531 0
0.784752 -2.15982 0
1.68537 -1.55409 0
1.79578 -1.93285 0
-0.449333 -0.405193 0
-0.189164 -0.282173 0
LINES 199 597
2 18 1
2 14 2
2 2 3
2 0 4
2 4 5
2 4 6
2 10 7
2 38 8
2 114 9
2 8 10
2 10 11
2 2 12
2 36 13
2 6 14
2 196 15
2 12 16
2 24 17
2 16 18
2 104 19
2 124 20
2 42 21
2 190 22
2 32 23
2 16 24
2 30 25
2 74 26
2 40 27
2 46 28
2 64 29
2 60 30
2 56 31
2 100 32
2 122 33
2 28 34
2 84 35
2 12 36
2 48 37
2 6 38
2 86 39
2 26 40
2 50 41
2 20 42
2 80 43
2 42 44
2 62 45
2 26 46
2 46 47
2 36 48
2 48 49
2 186 50
2 188 51
2 32 52
2 172 53
2 94 54
2 166 55
2 160 56
2 90 57
2 34 58
2 70 59
2 24 60
2 156 61
2 44 62
2 116 63
2 28 64
2 102 65
2 60 66
2 192 67
2 66 68
2 68 69
2 58 70
2 70 71
2 30 72
2 72 73
2 14 74
2 148 75
2 22 76
2 76 77
2 64 78
2 154 79
2 44 80
2 80 81
2 54 82
2 82 83
2 34 84
2 128 85
2 38 86
2 198 87
2 56 88
2 120 89
2 88 90
2 90 91
2 62 92
2 92 93
2 52 94
2 130 95
2 88 96
2 174 97
2 82 98
2 118 99
2 22 100
2 100 101
2 78 102
2 146 103
2 76 104
2 112 105
2 84 106
2 162 107
2 96 108
2 108 109
2 66 110
2 110 111
2 104 112
2 134 113
2 8 114
2 140 115
2 92 116
2 116 117
2 142 118
2 136 119
2 108 120
2 152 121
2 52 122
2 122 123
2 18 124
2 124 125
2 138 126
2 126 127
2 106 128
2 128 129
2 94 130
2 130 131
2 78 132
2 132 133
2 112 134
2 180 135
2 118 136
2 144 137
2 102 138
2 138 139
2 114 140
2 164 141
2 98 142
2 142 143
2 136 144
2 144 145
2 126 146
2 146 147
2 74 148
2 148 149
2 176 150
2 150 151
2 120 152
2 152 153
2 194 154
2 154 155
2 68 156
2 156 157
2 98 158
2 158 159
2 72 160
2 160 161
2 106 162
2 162 163
2 170 164
2 178 165
2 54 166
2 166 167
2 96 168
2 168 169
2 140 170
2 170 171
2 158 172
2 182 173
2 168 174
2 174 175
2 40 176
2 176 177
2 164 178
2 178 179
2 134 180
2 180 181
2 172 182
2 182 183
2 50 184
2 184 185
2 150 186
2 186 187
2 184 188
2 188 189
2 20 190
2 190 191
2 110 192
2 192 193
2 132 194
2 194 195
2 58 196
2 196 197
2 86 198
2 198 199
CELL_DATA 199
SCALARS radius float
LOOKUP_TABLE default
0.775848
5.03277
1.48161
5.82885
1.1916
5.8122
0.94064
2.35398
1.26228
1.4465
1.29947
4.9896
1.29242
5.6402
0.673358
4.91059
1.14015
4.21911
0.748557
4.18301
1.30405
3.83583
1.30123
3.51179
1.21983
3.696
1.31182
3.23147
1.20799
3.14596
1.35871
3.58485
1.29383
2.4692
1.14127
1.79752
1.09677
2.56729
0.996749
2.49966
1.09792
2.5209
1.08219
2.39876
1.4194
3.26703
1.04043
1.53955
1.32568
2.10234
1.13803
3.52676
0.607041
3.27666
1.60437
2.99859
1.23877
1.85901
0.981418
3.47127
0.984423
2.19305
1.1802
2.65379
0.863456
2.20303
0.966635
1.80465
1.33818
1.69474
1.57705
3.0836
1.14814
3.73134
0.917804
2.09712
1.01518
2.56759
1.19991
1.48203
1.25734
3.01792
1.50003
2.05117
0.872646
1.57094
1.18111
2.90256
0.816939
1.8832
1.68425
1.97363
1.46353
3.39166
1.03257
2.60977
1.12729
2.88896
1.38682
3.61434
1.04667
2.02466
1.13002
2.01462
0.798
1.92591
1.16795
2.03958
1.26932
1.68859
1.16836
1.97957
1.13954
2.15568
1.03179
1.65742
1.42753
2.50172
1.40317
1.86043
1.24294
1.69279
1.38987
4.21035
1.13037
1.87753
1.21691
1.35895
1.22652
1.56533
1.39839
2.05096
1.28558
1.93536
1.33539
2.35073
1.61463
1.9709
1.01229
2.00051
1.11407
2.59542
1.22229
2.17064
1.81894
1.68879
1.49977
1.13496
0.883173
2.29305
1.18878
1.80637
1.58394
1.73076
1.51204
1.51555
1.36209
1.87844
1.13862
3.0296
0.94546
1.66716
1.44872
1.77165
1.15712
1.97409
1.52741
2.10223
1.31219
1.90449
1.10437
1.72713
1.09249
1.91576
1.77566
2.37291
1.09255
1.61061
1.38012
1.79354
1.50193
1.70176
1.53607
1.99737
1.47567
2.18118
1.02758
1.68159
1.48598
3.85238
0.901838
1.47666
1.32319
1.8665
1.09641
1.15907
1.07774
1.42384
1.07402
