# vtk DataFile Version 3.0
Tree
ASCII
DATASET POLYDATA
POINTS 200 float
0 0 0
-0.384676 -3.11253 0
-0.192338 -1.55627 0
2.15158 -3.78018 0
0.979621 -2.66822 0
1.38232 -0.58899 0
-0.288507 -2.3344 0
-1.39739 -1.23536 0
-0.842948 -1.78488 0
-1.94909 -0.0895458 0
-0.336592 -2.72346 0
0.233966 -4.11254 0
-0.360634 -2.918 0
-1.62235 -3.59639 0
-0.991492 -3.25719 0
-2.21337 -2.17907 0
-1.30692 -3.42679 0
-0.875219 -4.43738 0
-1.46464 -3.51159 0
-2.19775 -4.45443 0
1.18097 -1.62861 0
2.16829 -1.51267 0
1.28165 -1.1088 0
2.16614 -0.0160039 0
-1.09107 -3.93209 0
1.43522 -4.33079 0
-1.39602 -0.937212 0
-0.754066 -0.407629 0
1.33198 -0.848894 0
0.768495 -0.131822 0
1.67463 -1.57064 0
2.04139 -2.63248 0
-0.0513128 -3.418 0
0.709937 -3.40677 0
1.05024 -0.490358 0
0.66951 -1.10929 0
-1.60243 -2.71813 0
-2.16317 -1.08622 0
-1.54349 -3.55399 0
-2.21176 -2.90593 0
-1.29696 -2.98766 0
-0.993822 -2.47743 0
0.329312 -3.41239 0
0.272833 -2.88238 0
1.92146 -1.54165 0
2.23126 -0.976075 0
0.909367 -0.31109 0
1.24104 -0.031216 0
0.172075 -4.13144 0
1.32147 -3.86878 0
-1.8828 -1.90218 0
-1.39441 -1.95207 0
0.838931 -0.221456 0
0.449415 -0.58127 0
0.644173 -0.401363 0
0.626004 -1.58335 0
-1.07504 -0.672421 0
-0.610007 -1.28918 0
-1.83119 -3.98301 0
-1.46104 -4.19358 0
1.85801 -2.10156 0
1.43174 -2.2692 0
-1.63861 -1.92712 0
-0.693436 -2.67649 0
-1.58292 -3.57519 0
-2.16372 -3.7795 0
0.803648 -4.23111 0
2.02243 -4.09735 0
-1.51651 -1.9396 0
-2.00379 -0.705735 0
1.9497 -2.36702 0
2.14409 -3.32642 0
-0.459497 -4.03176 0
-0.454205 -3.64375 0
0.746773 -4.00011 0
0.888672 -3.04965 0
-0.914554 -0.540025 0
-0.292865 -0.0144515 0
-0.83431 -0.473827 0
-0.450345 -0.94615 0
0.635088 -0.992357 0
0.630932 -1.93175 0
0.301073 -3.14738 0
-0.00830061 -2.57684 0
1.03412 -3.93444 0
1.26606 -3.57073 0
2.07636 -1.25886 0
1.81024 -1.15196 0
-0.60371 -0.277238 0
-1.55239 -0.1471 0
-1.76015 -1.32267 0
-2.23103 -0.0255321 0
2.0469 -2.84672 0
1.40487 -2.65867 0
1.1778 -3.90161 0
1.79873 -3.80543 0
0.63301 -1.46205 0
0.8972 -1.41707 0
1.9433 -1.20541 0
1.84094 -0.883477 0
-1.87763 -3.22996 0
-1.90441 -2.83118 0
-0.642328 -0.709988 0
-0.535696 -1.7091 0
-0.546336 -0.828069 0
-0.328458 -0.462375 0
1.11943 -4.28095 0
1.80391 -4.39877 0
0.630546 -1.28785 0
0.377844 -1.09305 0
-0.143711 -4.0816 0
-0.642275 -4.46306 0
-0.456851 -3.83776 0
-0.736906 -3.43563 0
1.72588 -2.75269 0
1.64988 -2.44803 0
0.817722 -3.52488 0
0.487936 -2.80474 0
0.0141819 -4.10652 0
-0.0286978 -4.35038 0
0.504195 -1.19045 0
0.146892 -0.691946 0
-1.64612 -4.0883 0
-1.17045 -4.34081 0
0.325544 -0.941199 0
0.544808 -0.182751 0
0.631971 -1.6969 0
0.784752 -2.15982 0
0.765105 -1.43956 0
1.07527 -0.904323 0
-1.45546 -1.94583 0
-1.20302 -1.72512 0
-1.14539 -2.73255 0
-0.886542 -2.93873 0
1.56538 -2.70568 0
1.6682 -2.97135 0
1.48826 -3.85352 0
0.655258 -2.6506 0
0.782247 -3.76249 0
0.329691 -3.63561 0
-1.60264 -3.58579 0
-2.21746 -4.12809 0
-1.32924 -1.83548 0
-1.42589 -1.52658 0
0.0931285 -4.11898 0
-0.172533 -3.66571 0
0.652829 -3.16481 0
0.34297 -2.65292 0
0.4979 -2.90886 0
0.351666 -2.36978 0
-1.26613 -1.7803 0
-0.604702 -2.296 0
-1.87332 -3.67735 0
-2.07766 -3.34428 0
1.89212 -1.04444 0
1.99744 -0.547058 0
1.48512 -2.68218 0
1.31327 -2.45092 0
-0.596879 -3.63669 0
-0.73186 -3.79096 0
0.44102 -1.14175 0
0.425055 -1.61854 0
1.6435 -3.82948 0
1.33179 -3.27653 0
-1.7607 -1.91465 0
-1.53332 -2.25155 0
-1.23457 -1.75271 0
-1.78235 -0.703356 0
1.0752 -0.171153 0
1.6571 -0.323464 0
-1.89102 -3.03057 0
-1.6943 -3.06693 0
-1.79266 -3.04875 0
-1.55456 -3.27427 0
1.61679 -2.83852 0
1.92664 -3.2242 0
1.94478 -0.795751 0
2.22622 -0.241753 0
0.146386 -2.86211 0
-0.101083 -2.8124 0
1.64488 -2.18538 0
1.52137 -1.76373 0
0.831153 -1.42832 0
0.824863 -1.71367 0
-0.437397 -0.645222 0
-0.528214 -0.435991 0
-0.666892 -3.53616 0
-1.08463 -3.48047 0
-0.382928 -0.553799 0
-0.189164 -0.282173 0
0.864176 -1.42269 0
1.10341 -1.23974 0
0.555969 -3.69905 0
0.344225 -3.92481 0
1.90386 -2.23429 0
1.98705 -2.01656 0
-1.16602 -2.30181 0
-1.35049 -2.73892 0
-1.73865 -4.03565 0
-1.57571 -3.94023 0
LINES 199 597
2 12 1
2 0 2
2 4 3
2 2 4
2 28 5
2 2 6
2 8 7
2 6 8
2 26 9
2 6 10
2 32 11
2 10 12
2 140 13
2 12 14
2 36 15
2 14 16
2 24 17
2 16 18
2 58 19
2 4 20
2 44 21
2 20 22
2 22 23
2 16 24
2 106 25
2 8 26
2 78 27
2 22 28
2 52 29
2 20 30
2 70 31
2 10 32
2 42 33
2 28 34
2 34 35
2 40 36
2 50 37
2 18 38
2 100 39
2 14 40
2 132 41
2 32 42
2 82 43
2 30 44
2 86 45
2 34 46
2 168 47
2 144 48
2 94 49
2 36 50
2 130 51
2 46 52
2 54 53
2 52 54
2 108 55
2 26 56
2 56 57
2 18 58
2 122 59
2 30 60
2 180 61
2 164 62
2 196 63
2 38 64
2 152 65
2 48 66
2 66 67
2 62 68
2 90 69
2 194 70
2 92 71
2 24 72
2 112 73
2 48 74
2 116 75
2 56 76
2 88 77
2 76 78
2 104 79
2 54 80
2 126 81
2 42 82
2 178 83
2 74 84
2 84 85
2 44 86
2 98 87
2 76 88
2 88 89
2 68 90
2 90 91
2 70 92
2 156 93
2 84 94
2 162 95
2 80 96
2 190 97
2 86 98
2 154 99
2 38 100
2 170 101
2 78 102
2 102 103
2 102 104
2 188 105
2 66 106
2 106 107
2 80 108
2 160 109
2 72 110
2 110 111
2 72 112
2 186 113
2 92 114
2 114 115
2 138 116
2 146 117
2 110 118
2 118 119
2 108 120
2 124 121
2 198 122
2 122 123
2 120 124
2 124 125
2 96 126
2 126 127
2 96 128
2 128 129
2 68 130
2 166 131
2 40 132
2 132 133
2 114 134
2 174 135
2 94 136
2 136 137
2 74 138
2 192 139
2 64 140
2 140 141
2 130 142
2 142 143
2 118 144
2 144 145
2 116 146
2 148 147
2 146 148
2 148 149
2 142 150
2 150 151
2 64 152
2 152 153
2 98 154
2 176 155
2 134 156
2 156 157
2 112 158
2 158 159
2 120 160
2 160 161
2 136 162
2 162 163
2 50 164
2 164 165
2 150 166
2 166 167
2 46 168
2 168 169
2 100 170
2 172 171
2 170 172
2 172 173
2 134 174
2 174 175
2 154 176
2 176 177
2 82 178
2 178 179
2 60 180
2 180 181
2 128 182
2 182 183
2 104 184
2 184 185
2 158 186
2 186 187
2 184 188
2 188 189
2 182 190
2 190 191
2 138 192
2 192 193
2 60 194
2 194 195
2 62 196
2 196 197
2 58 198
2 198 199
CELL_DATA 199
SCALARS radius float
LOOKUP_TABLE default
0.768747
6.03666
1.32283
4.32536
0.945107
5.18087
1.11964
2.89855
1.31204
4.85884
1.19043
4.73122
0.506018
4.72445
1.20633
4.17992
1.08655
2.63366
1.27387
4.28372
0.968587
3.5694
1.40386
3.79748
1.28235
2.84176
0.828557
3.49549
0.826673
3.21177
1.06941
2.06482
1.09723
3.47231
1.26741
3.10887
1.33132
2.24673
1.20366
3.18867
1.04416
1.92347
1.09432
2.20084
1.1199
3.41508
1.0494
3.51732
0.996236
3.0471
0.733422
3.30776
1.05142
3.29046
1.24831
2.74529
1.29387
1.90621
1.08659
2.82189
1.0839
2.90553
1.47144
1.70722
1.09932
2.16345
1.61904
2.65341
1.45446
2.62699
1.35069
3.76759
0.93789
3.22008
1.34855
2.64594
1.25733
2.33683
1.03914
3.25428
1.3685
1.79623
1.34867
2.49816
1.26615
2.13644
0.956787
1.79291
1.55715
2.03334
1.74679
2.56654
1.1109
2.38467
1.15536
2.6527
0.875225
2.0285
1.05487
1.85327
1.08563
2.30158
1.56736
2.02807
1.15106
1.80514
1.55685
2.50915
0.992143
3.62953
1.2065
1.7828
1.01094
2.43524
1.33284
2.39141
1.41782
3.58454
0.969061
2.40162
1.44453
1.5681
1.37028
2.09085
1.82978
1.91247
1.64261
2.26835
1.65818
2.17399
0.720386
1.33398
1.07301
2.29413
1.26861
2.32524
1.87901
2.61091
1.22737
1.27211
1.24484
2.1458
1.15726
3.56077
1.17748
2.23895
1.4773
2.03066
1.72685
2.02716
1.50025
1.42886
1.16685
1.95491
1.28687
1.6913
1.51351
1.6917
1.06223
1.67644
1.55153
1.81082
1.63808
2.95992
1.11963
1.70469
1.66068
1.53804
1.35407
1.66567
0.990728
1.49507
1.33315
1.9342
1.73187
1.84664
1.60908
1.64912
1.26656
1.49616
1.27563
1.92311
1.43596
1.93273
1.28082
1.53868
1.37678
1.72336
1.53167
1.60718
1.51553
1.6034
1.31486
2.67409
0.997555
1.80155
1.38578
1.69378
1.00115
