# vtk DataFile Version 3.0
Tree
ASCII
DATASET POLYDATA
POINTS 440 float
10000 20000 0
5004.21 5124.56 0
7381.46 12443.7 0
6898.86 11969.6 0
8187.98 14059 0
8795.52 12964 0
8249.2 13663.5 0
7886.54 13176.6 0
8912.79 16435.4 0
1928.08 15752.8 0
6188.57 10729.8 0
3794.26 11193.4 0
8332.94 14534.3 0
5857.71 14165.2 0
8796.82 16055.2 0
13478.7 12752.8 0
12882.6 13418.6 0
19862.2 9476.82 0
4370.62 16859.5 0
171.372 19920.8 0
4586.28 7156.76 0
545.82 4074.99 0
17643.3 9265.59 0
17804.7 6977.86 0
15135.5 12702.7 0
19386.2 13992.1 0
14234.4 12989 0
15956 14653.1 0
4810.19 5385.24 0
4452.05 4395.76 0
17923.9 7710.3 0
19046.2 1489.16 0
17147.1 4948.03 0
12917.8 120.095 0
1240.87 4220.92 0
263.229 2898.92 0
2154.57 16308.3 0
1273.03 16588.1 0
5868.11 10015.2 0
7604.29 7643.34 0
2833.8 16328.6 0
2744.63 16083.5 0
7648.04 8029.47 0
9559.22 7202.1 0
17647.5 6093.67 0
18095.6 5151.71 0
7639.29 7952.24 0
9154.03 1261.92 0
1435.75 16539 0
323.55 16902.5 0
4810.54 4616.31 0
4811.93 1540.58 0
2035.7 4503.51 0
1869.61 2698.05 0
7142.88 12101 0
9287.06 9484.37 0
17918.1 2793.06 0
17799.1 2509.37 0
7979.66 5638.54 0
8064.75 5060.12 0
2697.96 16324.5 0
108.698 12995.7 0
4842.64 7728.45 0
5666.29 7049.17 0
4720.62 6093.85 0
6044.5 5662.77 0
4039.96 11164 0
2014.19 11583.5 0
8838.63 7235.75 0
11689.8 4888.25 0
9782.56 19287.1 0
12008.1 19353.9 0
7307.6 14140.1 0
7007.2 13733.4 0
18556.1 13367.5 0
19436.4 13075.2 0
8061.99 6146.29 0
8731.7 5863.55 0
9260.69 17576.1 0
8004.57 17830.6 0
4640.01 6731.59 0
4886.54 6520.27 0
7292.05 8426.62 0
6879.19 7198.84 0
7542.76 12766.8 0
5208.9 12993.2 0
11248.3 14473.2 0
10454 12345 0
15927.1 3660.83 0
15276.2 3339.96 0
17342.1 3448.1 0
16579.8 1758.34 0
4681.71 1868.05 0
4162.21 102.183 0
2048.07 2954.77 0
2595.81 2176.18 0
8216.97 14154.1 0
8279.67 13919.7 0
4484.54 10934.9 0
4114.28 10452.6 0
6379.43 11004.1 0
6337.91 10571 0
4519.55 3824.87 0
3484.44 3407.36 0
15183.2 2607.24 0
15217.2 1933.63 0
16640.2 10640.4 0
14012.4 6337.34 0
15436.4 12290.2 0
14976.7 11532 0
15778.3 3450.11 0
16181.9 2634.04 0
17811.6 8332.41 0
17614.7 7919.76 0
12489.7 13651.4 0
12552.3 13528.1 0
5387.26 16568.8 0
4911.67 15830.3 0
6797.47 16515.5 0
5945.77 18098.6 0
11453.1 19100.3 0
13684.4 18219.4 0
8835.35 3866.37 0
9531.69 3396.41 0
17794.7 13049.4 0
18169.7 12441.9 0
5663.02 9557.87 0
5165.14 9769 0
6171.49 13037.4 0
6035.26 13142.4 0
5973.22 14170.4 0
4985.35 14216.1 0
9200.29 1475.85 0
9429.01 494.513 0
2045.6 3264.52 0
22.5096 114.183 0
18203.3 5559.57 0
19978.5 4365.14 0
11227.8 14413 0
11145.8 14172.3 0
5501.56 7185.03 0
6423.74 6406.16 0
18136.7 12672.6 0
19129.4 11772.8 0
17262.9 12980 0
18782.6 15992.9 0
19439.4 9035.54 0
19914.7 8479.23 0
11993.2 13980.1 0
12714.2 14345.9 0
14775 12817.2 0
14956.2 12578.2 0
18371.1 12270.2 0
18315.9 11560.4 0
18479.2 1886.47 0
18467.6 867.894 0
15796.9 3596.66 0
13454.9 4151.56 0
8741.8 2526.85 0
7637.75 1949.81 0
2545.82 5034.16 0
927.304 5678.34 0
8704.04 15751 0
8788.99 15654.4 0
14592.8 1897.75 0
14496.4 1546.94 0
609.326 14195.6 0
65.6395 14331 0
3921.35 508.445 0
3300.3 234.906 0
11695.2 14177.4 0
13719.7 16195.7 0
4791.37 7614.11 0
3133.58 8018.89 0
12568.3 13604.8 0
12182.1 12543.2 0
12918.8 18859.4 0
14318.8 19657.9 0
10924 5069.55 0
11200.9 4167.76 0
14163.8 18980.3 0
17743.9 18665.5 0
8240.16 14230.1 0
9350.59 13561.4 0
8323.2 4648.23 0
7986 4231.31 0
12206.9 12832.1 0
11533.8 11864.2 0
1807.49 14951.2 0
2422.86 13715.7 0
8029.06 5943.19 0
7271.97 5765.39 0
15328.9 2167.93 0
15877.6 1084.28 0
15135.6 13853.2 0
15297.4 13981.5 0
1575.32 1716.9 0
1881.45 970.635 0
3099.45 18628.3 0
3292.33 19750.9 0
18794.5 5394.26 0
19384.2 5927.43 0
17802.9 2924.07 0
19507.6 3078.46 0
9575.74 6347.86 0
9638.72 6099.11 0
13117.4 18394.2 0
13146.1 17173.5 0
15367.6 1663.6 0
14973.6 729.918 0
17758.1 6740.32 0
16584 6606.74 0
17148 18069.6 0
18044.2 17018.4 0
18595.8 2763.93 0
18932.8 2446.52 0
4707.75 1802.55 0
5879.82 507.099 0
17347.3 5406.29 0
16333 5634.22 0
11810.8 11998.1 0
11572.7 10598 0
16236.8 12827.8 0
16387.5 12773.7 0
7505.65 8188.33 0
8082.72 8393.19 0
17425.3 17817.7 0
17638.5 17861.1 0
15362.1 9226.45 0
14758.8 9257.04 0
10510.5 12594.4 0
9962.88 11524 0
17442.7 9540.55 0
18453.2 9985.55 0
13644.6 3835.98 0
12758.1 3640.06 0
17434.2 3343.3 0
17432.6 3239.04 0
11225.5 4416.42 0
11877.8 3607.45 0
4128.87 11118.2 0
3960.41 12248.8 0
8732.92 4022.74 0
8415.74 3512.09 0
6233.39 16536.8 0
5850.34 15427.2 0
6152.9 9697.5 0
6608.72 9698.39 0
15302.3 2775.82 0
14551 2781.16 0
1079.4 5608.61 0
69.2761 5973.88 0
14760.6 18798.2 0
14779.2 18649.7 0
9486.92 807.05 0
10176 94.5303 0
3584.37 7827.17 0
414.161 8274.64 0
4855.22 2735.84 0
5873.56 2293.36 0
16659.1 4433.15 0
15677 4939.2 0
3448.53 16540.9 0
3367.76 15563.1 0
16997.3 2214.94 0
17142.9 661.813 0
12332.5 18955.8 0
12604.9 18470.3 0
6684.81 11442.8 0
6051.6 11730.7 0
13338.3 17927.4 0
14193.4 17281 0
11832.6 11571 0
12157.8 11262.8 0
5319.44 1425.65 0
5650.94 1508.02 0
16110.8 18019.7 0
16736.6 16362.6 0
16592.7 10542 0
16402.9 10148.2 0
1220.97 14401.6 0
1271.21 13714.4 0
15145.9 11651.1 0
14903.1 10611 0
8487.09 4398.03 0
8835.71 4408.58 0
18997.1 5210.89 0
19132.2 5088.65 0
2043.62 3512.32 0
2536.1 3344.82 0
15917.9 11630.3 0
16282.8 11889.9 0
13797.2 7212.61 0
12799.6 7080.97 0
1148 869.78 0
1283.43 400.461 0
11119 19137.6 0
11539.4 17552.3 0
4752.34 4458.02 0
5863.43 3691.55 0
13899.8 1194.17 0
13697.9 1027.63 0
2631.78 11185.3 0
1050.59 10431.3 0
5334.87 8826.1 0
5342.69 8694.8 0
3133.09 11520 0
2322 12901.3 0
5721.15 10840.8 0
5555.49 11079.4 0
8754.27 10705.1 0
9113.81 10646.8 0
11174 18522.2 0
11046.3 18391.8 0
17744.3 8705.68 0
18031 8643.98 0
16062.4 11432.3 0
15873.1 10960.8 0
9869.53 19572.3 0
9871.66 19455.5 0
737.139 5935.31 0
378.215 6876.83 0
18802.9 15289.2 0
19593.3 15740.1 0
13214.4 689.164 0
12436.5 817.286 0
17203.5 18019.2 0
19906 18073.2 0
2443.79 4928.03 0
2533.38 4551.04 0
10267.7 15106 0
10409 14551.7 0
16922.9 1234.56 0
16334.1 419.273 0
6178.24 11673.1 0
5255.69 12087.6 0
17050.3 1669.11 0
17410.8 1446.58 0
2478.68 12300.8 0
1483.22 12661.4 0
15796.3 12777.8 0
16037.9 13556.2 0
8982.37 16663.6 0
9228.41 16393.5 0
19252 17595.3 0
19622.2 16905.5 0
4785.81 2388.72 0
4063.92 2270.61 0
16195.7 17544.7 0
15909.8 17301.7 0
4586.69 3607.06 0
4361.92 3480.99 0
18718.5 1319.77 0
19687.3 71.5715 0
4178.18 6732.24 0
3623.22 6827.09 0
17950 14224.8 0
17618.4 14585.7 0
8295.48 1933.89 0
7614.24 139.084 0
2872.29 5373.78 0
3564.15 4439.31 0
8563.27 2289.66 0
8531.09 2067.8 0
8727.48 13166.5 0
9547.94 12577.4 0
12570.4 14991.2 0
12789.2 15194.7 0
4980.61 16685.1 0
4673.12 16596.2 0
18618.9 14780.9 0
19588.7 14876.2 0
17901.4 7834.72 0
19696.9 6764.86 0
1047.46 16528.5 0
606.481 16123 0
1275.84 8468.13 0
983.249 8982.1 0
4116.39 17213.2 0
3731.44 17359.5 0
8339.05 17886.1 0
7164.71 18617.1 0
1985.58 15225.9 0
2185.69 14883 0
1832.1 19030.1 0
1395.11 18986.5 0
7216.01 18520.4 0
6246.87 18864.4 0
18350.8 14486.1 0
18616.2 14419 0
8185.78 5044.35 0
9381 5139.38 0
2175.36 8259.53 0
2005.53 8334.12 0
4262.92 1157.66 0
4108.49 1035.32 0
8407.16 14777.7 0
8997.24 14344.5 0
6608.56 9189.15 0
6313.16 8680.17 0
10464.8 12148.5 0
10829.6 11435.1 0
18528.6 997.571 0
18020 160.643 0
14823.2 10977.4 0
14018.2 10363 0
19159.8 1022.41 0
19956 1081.15 0
14745 8748.63 0
13841.5 8851.2 0
964.508 3530.61 0
1038.78 3156.14 0
6769.29 16690.8 0
6727.02 16953.7 0
13693.7 13160.8 0
13974.3 13638.4 0
14388.5 7660.16 0
14858.1 6378.29 0
17381.4 13165 0
17460.4 13288.3 0
16854.3 4639.1 0
16664.9 4677.83 0
2589.28 16321.3 0
2184.67 17381.8 0
16524.6 10798.8 0
17378.5 10947.9 0
2811.12 11956.2 0
2832.05 12139.4 0
918.891 4319.1 0
326.011 4857.74 0
16758.3 6810.93 0
15845.8 6983.64 0
4810.4 4923.88 0
5883.21 4645.23 0
11643.3 3729.45 0
12009.8 2599.52 0
15570.7 18331.1 0
17280.3 19957.5 0
15803.3 14468 0
16833.1 15327.7 0
LINES 439 1317
2 28 1
2 84 2
2 2 3
2 96 4
2 364 5
2 4 6
2 6 7
2 342 8
2 36 9
2 100 10
2 66 11
2 396 12
2 130 13
2 8 14
2 16 15
2 174 16
2 146 17
2 368 18
2 384 19
2 172 20
2 428 21
2 232 22
2 30 23
2 150 24
2 74 25
2 414 26
2 438 27
2 64 28
2 50 29
2 372 30
2 154 31
2 218 32
2 324 33
2 52 34
2 410 35
2 422 36
2 48 37
2 10 38
2 46 39
2 262 40
2 40 41
2 224 42
2 68 43
2 210 44
2 136 45
2 42 46
2 132 47
2 36 48
2 374 49
2 432 50
2 216 51
2 328 52
2 94 53
2 2 54
2 310 55
2 202 56
2 56 57
2 190 58
2 58 59
2 40 60
2 166 61
2 304 62
2 140 63
2 80 64
2 64 65
2 240 66
2 302 67
2 42 68
2 178 69
2 318 70
2 120 71
2 12 72
2 72 73
2 124 74
2 74 75
2 46 76
2 76 77
2 70 78
2 380 79
2 20 80
2 80 81
2 398 82
2 82 83
2 4 84
2 128 85
2 330 86
2 230 87
2 260 88
2 156 89
2 32 90
2 264 91
2 346 92
2 168 93
2 134 94
2 94 95
2 182 96
2 96 97
2 308 98
2 98 99
2 268 100
2 100 101
2 298 102
2 102 103
2 248 104
2 192 105
2 424 106
2 292 107
2 24 108
2 282 109
2 88 110
2 110 111
2 314 112
2 112 113
2 148 114
2 114 115
2 244 116
2 116 117
2 8 118
2 412 119
2 296 120
2 206 121
2 242 122
2 122 123
2 144 124
2 142 125
2 38 126
2 126 127
2 84 128
2 128 129
2 72 130
2 130 131
2 158 132
2 254 133
2 288 134
2 294 135
2 44 136
2 286 137
2 86 138
2 138 139
2 62 140
2 140 141
2 124 142
2 152 143
2 222 144
2 322 145
2 22 146
2 146 147
2 170 148
2 148 149
2 26 150
2 150 151
2 142 152
2 152 153
2 56 154
2 402 155
2 88 156
2 234 157
2 122 158
2 358 159
2 360 160
2 250 161
2 14 162
2 162 163
2 104 164
2 164 165
2 280 166
2 166 167
2 394 168
2 168 169
2 86 170
2 366 171
2 62 172
2 256 173
2 114 174
2 186 175
2 266 176
2 180 177
2 204 178
2 238 179
2 176 180
2 212 181
2 12 182
2 182 183
2 390 184
2 184 185
2 174 186
2 220 187
2 382 188
2 188 189
2 76 190
2 190 191
2 104 192
2 208 193
2 26 194
2 194 195
2 134 196
2 196 197
2 378 198
2 198 199
2 136 200
2 200 201
2 236 202
2 214 203
2 68 204
2 204 205
2 176 206
2 270 207
2 192 208
2 208 209
2 30 210
2 430 211
2 276 212
2 226 213
2 202 214
2 214 215
2 92 216
2 274 217
2 44 218
2 218 219
2 186 220
2 272 221
2 340 222
2 222 223
2 82 224
2 224 225
2 326 226
2 226 227
2 278 228
2 228 229
2 138 230
2 400 231
2 106 232
2 232 233
2 156 234
2 234 235
2 90 236
2 236 237
2 178 238
2 434 239
2 98 240
2 240 241
2 284 242
2 242 243
2 118 244
2 244 245
2 38 246
2 246 247
2 110 248
2 248 249
2 160 250
2 320 251
2 180 252
2 252 253
2 132 254
2 254 255
2 172 256
2 376 257
2 350 258
2 258 259
2 420 260
2 260 261
2 18 262
2 262 263
2 90 264
2 332 265
2 120 266
2 266 267
2 54 268
2 334 269
2 206 270
2 270 271
2 220 272
2 272 273
2 216 274
2 274 275
2 436 276
2 348 277
2 106 278
2 278 279
2 188 280
2 280 281
2 108 282
2 404 283
2 184 284
2 284 285
2 200 286
2 286 287
2 52 288
2 288 289
2 108 290
2 290 291
2 416 292
2 292 293
2 196 294
2 294 295
2 70 296
2 312 297
2 50 298
2 298 299
2 164 300
2 300 301
2 306 302
2 302 303
2 126 304
2 304 305
2 66 306
2 338 307
2 10 308
2 308 309
2 54 310
2 310 311
2 296 312
2 312 313
2 22 314
2 314 315
2 290 316
2 316 317
2 0 318
2 318 319
2 250 320
2 320 321
2 370 322
2 322 323
2 300 324
2 324 325
2 212 326
2 344 327
2 160 328
2 328 329
2 14 330
2 330 331
2 336 332
2 332 333
2 268 334
2 334 335
2 264 336
2 336 337
2 426 338
2 338 339
2 24 340
2 340 341
2 78 342
2 342 343
2 326 344
2 344 345
2 258 346
2 346 347
2 276 348
2 348 349
2 102 350
2 350 351
2 154 352
2 406 353
2 20 354
2 354 355
2 418 356
2 356 357
2 362 358
2 358 359
2 354 360
2 360 361
2 158 362
2 362 363
2 6 364
2 364 365
2 170 366
2 366 367
2 116 368
2 368 369
2 388 370
2 370 371
2 112 372
2 372 373
2 48 374
2 374 375
2 392 376
2 376 377
2 18 378
2 378 379
2 78 380
2 386 381
2 60 382
2 382 383
2 198 384
2 384 385
2 380 386
2 386 387
2 356 388
2 388 389
2 58 390
2 390 391
2 256 392
2 392 393
2 92 394
2 394 395
2 162 396
2 396 397
2 246 398
2 398 399
2 230 400
2 400 401
2 352 402
2 402 403
2 282 404
2 404 405
2 352 406
2 406 407
2 228 408
2 408 409
2 34 410
2 410 411
2 118 412
2 412 413
2 16 414
2 414 415
2 408 416
2 416 417
2 144 418
2 418 419
2 32 420
2 420 421
2 60 422
2 422 423
2 316 424
2 424 425
2 306 426
2 426 427
2 34 428
2 428 429
2 210 430
2 430 431
2 28 432
2 432 433
2 238 434
2 434 435
2 252 436
2 436 437
2 194 438
2 438 439
CELL_DATA 439
SCALARS radius float
LOOKUP_TABLE default
4.97616
31.9269
4.86345
32.2293
4.47191
7.90915
4.91289
42.2539
6.11888
31.5459
4.53457
32.5173
4.54685
40.9179
5.28168
31.5757
7.24128
18.3631
9.52474
24.8807
7.06339
28.0377
5.93418
31.1888
7.68489
31.4903
5.40544
18.8982
5.53017
27.387
8.07547
26.0272
11.0318
12.7166
9.15673
11.1836
5.13661
30.572
4.56214
16.305
4.59402
21.68
6.05328
26.9693
5.9317
19.2002
6.83522
10.5363
8.32242
18.4632
6.33782
18.1734
6.35746
31.8892
7.68756
16.4342
5.97835
18.6709
5.93346
16.1825
9.7412
26.0001
4.85145
19.2021
6.91659
13.1924
7.04659
14.5998
7.8679
43.2512
4.583
8.81654
4.94856
9.549
7.47016
19.114
6.10556
42.3712
4.29144
19.2941
4.67583
21.9697
6.38829
32.0698
7.00956
32.3631
4.81324
20.4876
6.7242
20.4291
7.65869
16.1478
9.7086
9.46977
8.39793
32.245
3.65686
14.0023
5.46011
31.5761
4.48443
17.8715
7.42448
17.8572
6.40379
29.1801
8.58817
29.6076
4.29969
18.7241
7.5381
27.6461
5.17462
31.8897
3.28914
18.5994
5.45408
19.0669
6.29373
16.5809
5.16756
17.3234
7.30668
12.3649
5.08831
26.0784
4.88566
7.6
4.55597
8.26284
7.77575
13.7869
8.82638
15.4254
11.421
11.8252
9.30648
9.498
3.76788
8.10699
7.48073
10.0655
7.85257
16.0819
8.31468
9.33819
7.57468
31.9323
5.06775
31.2134
4.15457
9.61191
7.39144
16.1662
6.58938
12.6721
8.35507
16.8788
8.46878
19.7706
5.42097
32.5605
3.04755
15.4408
7.08942
11.2294
7.8926
12.8384
10.6294
32.0881
7.2139
25.7346
5.54728
31.878
4.3776
16.3405
5.2896
14.0307
6.58073
15.4932
6.83497
32.2998
5.55308
18.0735
6.15777
9.70102
5.16051
13.2815
8.02053
18.904
6.27318
12.6263
9.22908
9.34761
4.38975
14.1299
8.61111
11.4765
7.09827
11.3051
7.68421
17.8374
9.22253
14.2444
5.04172
8.63619
6.06233
12.0514
9.87922
27.2938
5.87371
13.4135
7.85388
10.734
7.67632
12.1952
10.3094
26.1891
6.91829
9.39429
7.65025
16.1514
3.78299
21.7882
5.3517
8.60661
5.34928
13.4743
5.84477
9.29608
7.01974
28.1412
6.25665
12.0067
10.4697
17.9215
4.32026
13.1521
7.86757
13.7198
6.59282
17.6426
6.63982
18.7752
5.68978
22.1304
4.68266
18.3077
7.617
11.6075
8.41217
15.2849
3.71594
13.2024
11.7292
11.795
9.14111
17.2756
8.05888
20.8014
7.37563
16.5913
6.14802
14.0443
9.15693
16.4633
4.62819
31.6826
3.8909
7.96929
6.56792
8.84356
6.24795
11.5956
7.73846
14.5012
7.6986
13.6805
4.84876
12.2247
7.43427
8.87301
5.84108
17.832
5.63338
9.97034
5.69893
15.8019
6.50613
29.3396
4.73615
10.9735
8.82788
12.9715
8.84871
16.9144
6.04285
18.2963
7.47019
14.9256
7.46411
10.07
8.75582
26.0211
3.49561
13.0113
7.50404
14.1262
4.19035
8.55503
5.55919
6.54721
3.91467
27.6881
4.5882
29.2984
4.91074
43.2554
2.85899
11.1992
9.31921
10.834
8.86558
14.2755
11.6142
12.7938
9.03519
18.3352
5.44853
32.3923
4.51019
12.3422
10.3611
6.83779
6.38904
13.2399
7.61054
10.1747
8.5761
16.3668
5.54874
42.2651
3.9135
11.3356
8.95863
16.6701
7.50029
8.59962
5.64294
17.4337
5.22743
15.4644
10.7101
20.1816
5.38012
13.0144
6.08597
12.5219
11.0685
20.0533
6.95407
12.9824
6.07931
7.21876
6.59425
7.8239
4.69534
18.4417
4.30656
12.1737
8.10535
27.5855
7.66251
10.1125
7.70655
10.9953
8.26924
11.7566
4.84064
8.29102
4.25665
13.6229
5.70169
10.4887
6.61772
7.88855
7.45167
12.5547
5.5907
18.469
7.34373
11.3709
5.20436
13.3827
6.54803
32.5516
4.77412
22.0603
5.08693
8.84437
7.01982
11.4352
10.6537
8.52282
7.48766
13.0118
9.91412
13.0973
6.85613
10.4986
7.30238
6.79211
4.00078
31.5263
4.75103
12.4385
8.44845
13.14
4.00913
20.8815
4.70942
11.9572
6.77387
29.2523
5.69805
10.572
5.04317
9.65234
8.17771
8.94883
8.01035
18.7825
6.92571
12.5783
11.4549
15.2113
7.77656
9.01308
8.31187
