# vtk DataFile Version 3.0
Tree
ASCII
DATASET POLYDATA
POINTS 100 float
10000 20000 0
5004.21 5124.56 0
7381.46 12443.7 0
6898.86 11969.6 0
8187.98 14059 0
8795.52 12964 0
8249.2 13663.5 0
7886.54 13176.6 0
8912.79 16435.4 0
1928.08 15752.8 0
6188.57 10729.8 0
3794.26 11193.4 0
8332.94 14534.3 0
5857.71 14165.2 0
8796.82 16055.2 0
13478.7 12752.8 0
12882.6 13418.6 0
19862.2 9476.82 0
4370.62 16859.5 0
171.372 19920.8 0
4586.28 7156.76 0
545.82 4074.99 0
17643.3 9265.59 0
17804.7 6977.86 0
15135.5 12702.7 0
19386.2 13992.1 0
14234.4 12989 0
15956 14653.1 0
4810.19 5385.24 0
4452.05 4395.76 0
17923.9 7710.3 0
19046.2 1489.16 0
17147.1 4948.03 0
12917.8 120.095 0
1240.87 4220.92 0
263.229 2898.92 0
2154.57 16308.3 0
1273.03 16588.1 0
5868.11 10015.2 0
7604.29 7643.34 0
2833.8 16328.6 0
2744.63 16083.5 0
7648.04 8029.47 0
9559.22 7202.1 0
17647.5 6093.67 0
18095.6 5151.71 0
7639.29 7952.24 0
9154.03 1261.92 0
1435.75 16539 0
323.55 16902.5 0
4810.54 4616.31 0
4811.93 1540.58 0
2035.7 4503.51 0
1869.61 2698.05 0
7142.88 12101 0
9287.06 9484.37 0
17918.1 2793.06 0
17799.1 2509.37 0
7979.66 5638.54 0
8064.75 5060.12 0
2697.96 16324.5 0
108.698 12995.7 0
4842.64 7728.45 0
5666.29 7049.17 0
4720.62 6093.85 0
6044.5 5662.77 0
4039.96 11164 0
2014.19 11583.5 0
8838.63 7235.75 0
11689.8 4888.25 0
9782.56 19287.1 0
12008.1 19353.9 0
7307.6 14140.1 0
7007.2 13733.4 0
18556.1 13367.5 0
19436.4 13075.2 0
8061.99 6146.29 0
8731.7 5863.55 0
9260.69 17576.1 0
8004.57 17830.6 0
4640.01 6731.59 0
4886.54 6520.27 0
7292.05 8426.62 0
6879.19 7198.84 0
7542.76 12766.8 0
5208.9 12993.2 0
11248.3 14473.2 0
10454 12345 0
15927.1 3660.83 0
15276.2 3339.96 0
17342.1 3448.1 0
16579.8 1758.34 0
4681.71 1868.05 0
4162.21 102.183 0
2048.07 2954.77 0
2595.81 2176.18 0
8216.97 14154.1 0
8279.67 13919.7 0
4484.54 10934.9 0
4114.28 10452.6 0
LINES 99 297
2 28 1
2 84 2
2 2 3
2 96 4
2 6 5
2 4 6
2 6 7
2 78 8
2 36 9
2 54 10
2 66 11
2 14 12
2 72 13
2 8 14
2 16 15
2 86 16
2 22 17
2 8 18
2 18 19
2 62 20
2 34 21
2 24 22
2 30 23
2 26 24
2 74 25
2 16 26
2 26 27
2 64 28
2 50 29
2 22 30
2 56 31
2 44 32
2 88 33
2 52 34
2 34 35
2 60 36
2 48 37
2 10 38
2 46 39
2 18 40
2 40 41
2 82 42
2 68 43
2 30 44
2 44 45
2 42 46
2 58 47
2 36 48
2 48 49
2 28 50
2 92 51
2 20 52
2 94 53
2 2 54
2 54 55
2 90 56
2 56 57
2 76 58
2 58 59
2 40 60
2 60 61
2 38 62
2 62 63
2 80 64
2 64 65
2 98 66
2 66 67
2 42 68
2 68 69
2 0 70
2 70 71
2 12 72
2 72 73
2 24 74
2 74 75
2 46 76
2 76 77
2 70 78
2 78 79
2 20 80
2 80 81
2 38 82
2 82 83
2 4 84
2 84 85
2 14 86
2 86 87
2 32 88
2 88 89
2 32 90
2 90 91
2 50 92
2 92 93
2 52 94
2 94 95
2 12 96
2 96 97
2 10 98
2 98 99
CELL_DATA 99
SCALARS radius float
LOOKUP_TABLE default
7.87278
32.888
7.17723
33.4514
8.12445
9.79457
7.38864
41.5266
9.2224
32.3759
7.53742
33.8995
9.8046
39.7966
7.76028
28.5294
11.2867
20.474
12.9099
26.4672
11.7268
26.4806
9.01607
27.8906
11.7685
28.3367
10.1886
19.6686
8.87802
25.7787
16.0749
24.8084
17.8244
16.6784
14.4652
15.1065
7.97501
31.3264
7.05023
18.5961
6.84067
21.8865
9.65986
25.4057
10.4142
18.6766
16.2375
13.8609
12.9182
19.2388
11.2959
21.0384
11.2235
32.7736
10.8181
17.4287
10.4476
17.3278
9.7316
18.2822
13.8613
26.8358
9.2273
20.6895
10.7649
13.6327
12.8168
15.8333
14.5305
41.7408
8.68504
11.1069
7.53424
14.6231
11.4397
18.3356
9.87009
41.6151
7.71318
20.9755
7.19412
22.5166
9.76724
33.1691
9.72587
28.8737
9.47686
19.1927
11.205
20.1643
14.268
18.5868
17.0767
16.7179
14.8257
33.4973
5.36555
14.7277
8.71046
