<VTKFile type="PolyData" version="1.0" byte_order="LittleEndian" header_type="UInt64">
  <PolyData>
    <Piece NumberOfPoints="152" NumberOfLines="302">
      <PointData Scalars="Scalars_">
        <DataArray type="Float32" Name="Scalars_" format="ascii">
     95.199997      95.220001      95.239998      95.259995      95.299995      95.339996      95.379997      95.439995      95.500000      95.559998      95.619995      95.699997      95.779999      95.860001      95.939995      96.040001      96.119995      96.220001      96.299995      96.400002      96.500000      96.599998      96.699997      96.799995      96.900002      97.000000      97.099998      97.199997      97.299995      97.400002      97.519997      97.619995      97.720001      97.839996      97.939995      98.040001      98.159996      98.259995      98.379997      98.479996      98.599998      98.699997      98.820000      98.939995      99.040001      99.159996      99.259995      99.379997      99.500000      99.599998      99.720001      99.839996      99.939995      100.059998      100.180000      100.279999      100.400002      100.519997      100.639999      100.759995      100.860001      100.979996      101.099998      101.220001      101.339996      101.439995      101.559998      101.680000      101.799995      101.919998      102.040001      102.159996      102.279999      102.379997      102.500000      102.619995      102.739998      102.860001      102.979996      103.099998      103.220001      103.339996      103.459999      103.579994      103.699997      103.820000      103.939995      104.059998      104.180000      104.299995      104.419998      104.540001      104.659996      754.940002      754.820007      754.700012      754.579956      754.459961      754.339966      754.219971      754.119995      754.000000      753.880005      753.760010      753.659973      753.539978      753.419983      753.299988      753.200012      753.079956      752.979980      752.859985      752.760010      752.639954      752.539978      752.419983      752.320007      752.219971      752.099976      752.000000      751.899963      751.799988      751.700012      751.599976      751.500000      751.399963      751.299988      751.219971      751.119995      751.039978      750.959961      750.880005      750.799988      750.739990      750.679993      750.619995      750.579956      750.539978      750.500000      750.500000      750.479980      750.500000      750.519958      750.579956      750.639954      750.739990      750.839966      751.000000      751.239990      751.940002      859.659973      746.599976         </DataArray>
      </PointData>
      <Points>
        <DataArray type="Float32" Name="Points" NumberOfComponents="3" format="ascii">
-5000.000000 9900.000000 100.000000
-4900.000000 9900.000000 100.000000
-4800.000000 9900.000000 100.000000
-4700.000000 9900.000000 100.000000
-4600.000000 9900.000000 100.000000
-4500.000000 9900.000000 100.000000
-4400.000000 9900.000000 100.000000
-4300.000000 9900.000000 100.000000
-4200.000000 9900.000000 100.000000
-4100.000000 9900.000000 100.000000
-4000.000000 9900.000000 100.000000
-3900.000000 9900.000000 100.000000
-3800.000000 9900.000000 100.000000
-3700.000000 9900.000000 100.000000
-3600.000000 9900.000000 100.000000
-3500.000000 9900.000000 100.000000
-3400.000000 9900.000000 100.000000
-3300.000000 9900.000000 100.000000
-3200.000000 9900.000000 100.000000
-3100.000000 9900.000000 100.000000
-3000.000000 9900.000000 100.000000
-2900.000000 9900.000000 100.000000
-2800.000000 9900.000000 100.000000
-2700.000000 9900.000000 100.000000
-2600.000000 9900.000000 100.000000
-2500.000000 9900.000000 100.000000
-2400.000000 9900.000000 100.000000
-2300.000000 9900.000000 100.000000
-2200.000000 9900.000000 100.000000
-2100.000000 9900.000000 100.000000
-2000.000000 9900.000000 100.000000
-1900.000000 9900.000000 100.000000
-1800.000000 9900.000000 100.000000
-1700.000000 9900.000000 100.000000
-1600.000000 9900.000000 100.000000
-1500.000000 9900.000000 100.000000
-1400.000000 9900.000000 100.000000
-1300.000000 9900.000000 100.000000
-1200.000000 9900.000000 100.000000
-1100.000000 9900.000000 100.000000
-1000.000000 9900.000000 100.000000
-900.000000 9900.000000 100.000000
-800.000000 9900.000000 100.000000
-700.000000 9900.000000 100.000000
-600.000000 9900.000000 100.000000
-500.000000 9900.000000 100.000000
-400.000000 9900.000000 100.000000
-300.000000 9900.000000 100.000000
-200.000000 9900.000000 100.000000
-100.000000 9900.000000 100.000000
0.000000 9900.000000 100.000000
100.000000 9900.000000 100.000000
200.000000 9900.000000 100.000000
300.000000 9900.000000 100.000000
400.000000 9900.000000 100.000000
500.000000 9900.000000 100.000000
600.000000 9900.000000 100.000000
700.000000 9900.000000 100.000000
800.000000 9900.000000 100.000000
900.000000 9900.000000 100.000000
1000.000000 9900.000000 100.000000
1100.000000 9900.000000 100.000000
1200.000000 9900.000000 100.000000
1300.000000 9900.000000 100.000000
1400.000000 9900.000000 100.000000
1500.000000 9900.000000 100.000000
1600.000000 9900.000000 100.000000
1700.000000 9900.000000 100.000000
1800.000000 9900.000000 100.000000
1900.000000 9900.000000 100.000000
2000.000000 9900.000000 100.000000
2100.000000 9900.000000 100.000000
2200.000000 9900.000000 100.000000
2300.000000 9900.000000 100.000000
2400.000000 9900.000000 100.000000
2500.000000 9900.000000 100.000000
2600.000000 9900.000000 100.000000
2700.000000 9900.000000 100.000000
2800.000000 9900.000000 100.000000
2900.000000 9900.000000 100.000000
3000.000000 9900.000000 100.000000
3100.000000 9900.000000 100.000000
3200.000000 9900.000000 100.000000
3300.000000 9900.000000 100.000000
3400.000000 9900.000000 100.000000
3500.000000 9900.000000 100.000000
3600.000000 9900.000000 100.000000
3700.000000 9900.000000 100.000000
3800.000000 9900.000000 100.000000
3900.000000 9900.000000 100.000000
4000.000000 9900.000000 100.000000
4100.000000 9900.000000 100.000000
4200.000000 9900.000000 100.000000
4300.000000 9900.000000 100.000000
4400.000000 9900.000000 100.000000
4500.000000 9900.000000 100.000000
4600.000000 9900.000000 100.000000
4700.000000 9900.000000 100.000000
4800.000000 9900.000000 100.000000
4900.000000 9900.000000 100.000000
5000.000000 9900.000000 100.000000
5100.000000 9900.000000 100.000000
5200.000000 9900.000000 100.000000
5300.000000 9900.000000 100.000000
5400.000000 9900.000000 100.000000
5500.000000 9900.000000 100.000000
5600.000000 9900.000000 100.000000
5700.000000 9900.000000 100.000000
5800.000000 9900.000000 100.000000
5900.000000 9900.000000 100.000000
6000.000000 9900.000000 100.000000
6100.000000 9900.000000 100.000000
6200.000000 9900.000000 100.000000
6300.000000 9900.000000 100.000000
6400.000000 9900.000000 100.000000
6500.000000 9900.000000 100.000000
6600.000000 9900.000000 100.000000
6700.000000 9900.000000 100.000000
6800.000000 9900.000000 100.000000
6900.000000 9900.000000 100.000000
7000.000000 9900.000000 100.000000
7100.000000 9900.000000 100.000000
7200.000000 9900.000000 100.000000
7300.000000 9900.000000 100.000000
7400.000000 9900.000000 100.000000
7500.000000 9900.000000 100.000000
7600.000000 9900.000000 100.000000
7700.000000 9900.000000 100.000000
7800.000000 9900.000000 100.000000
7900.000000 9900.000000 100.000000
8000.000000 9900.000000 100.000000
8100.000000 9900.000000 100.000000
8200.000000 9900.000000 100.000000
8300.000000 9900.000000 100.000000
8400.000000 9900.000000 100.000000
8500.000000 9900.000000 100.000000
8600.000000 9900.000000 100.000000
8700.000000 9900.000000 100.000000
8800.000000 9900.000000 100.000000
8900.000000 9900.000000 100.000000
9000.000000 9900.000000 100.000000
9100.000000 9900.000000 100.000000
9200.000000 9900.000000 100.000000
9300.000000 9900.000000 100.000000
9400.000000 9900.000000 100.000000
9500.000000 9900.000000 100.000000
9600.000000 9900.000000 100.000000
9700.000000 9900.000000 100.000000
9800.000000 9900.000000 100.000000
9900.000000 9900.000000 100.000000
10000.000000 9900.000000 100.000000
10100.000000 9900.000000 100.000000
        </DataArray>
      </Points>
      <Lines>
        <DataArray type="Int64" Name="connectivity" format="ascii">
0 1
1 0
1 2
2 1
2 3
3 2
3 4
4 3
4 5
5 4
5 6
6 5
6 7
7 6
7 8
8 7
8 9
9 8
9 10
10 9
10 11
11 10
11 12
12 11
12 13
13 12
13 14
14 13
14 15
15 14
15 16
16 15
16 17
17 16
17 18
18 17
18 19
19 18
19 20
20 19
20 21
21 20
21 22
22 21
22 23
23 22
23 24
24 23
24 25
25 24
25 26
26 25
26 27
27 26
27 28
28 27
28 29
29 28
29 30
30 29
30 31
31 30
31 32
32 31
32 33
33 32
33 34
34 33
34 35
35 34
35 36
36 35
36 37
37 36
37 38
38 37
38 39
39 38
39 40
40 39
40 41
41 40
41 42
42 41
42 43
43 42
43 44
44 43
44 45
45 44
45 46
46 45
46 47
47 46
47 48
48 47
48 49
49 48
49 50
50 49
50 51
51 50
51 52
52 51
52 53
53 52
53 54
54 53
54 55
55 54
55 56
56 55
56 57
57 56
57 58
58 57
58 59
59 58
59 60
60 59
60 61
61 60
61 62
62 61
62 63
63 62
63 64
64 63
64 65
65 64
65 66
66 65
66 67
67 66
67 68
68 67
68 69
69 68
69 70
70 69
70 71
71 70
71 72
72 71
72 73
73 72
73 74
74 73
74 75
75 74
75 76
76 75
76 77
77 76
77 78
78 77
78 79
79 78
79 80
80 79
80 81
81 80
81 82
82 81
82 83
83 82
83 84
84 83
84 85
85 84
85 86
86 85
86 87
87 86
87 88
88 87
88 89
89 88
89 90
90 89
90 91
91 90
91 92
92 91
92 93
93 92
93 94
94 93
94 95
95 94
95 96
96 95
96 97
97 96
97 98
98 97
98 99
99 98
99 100
100 99
100 101
101 100
101 102
102 101
102 103
103 102
103 104
104 103
104 105
105 104
105 106
106 105
106 107
107 106
107 108
108 107
108 109
109 108
109 110
110 109
110 111
111 110
111 112
112 111
112 113
113 112
113 114
114 113
114 115
115 114
115 116
116 115
116 117
117 116
117 118
118 117
118 119
119 118
119 120
120 119
120 121
121 120
121 122
122 121
122 123
123 122
123 124
124 123
124 125
125 124
125 126
126 125
126 127
127 126
127 128
128 127
128 129
129 128
129 130
130 129
130 131
131 130
131 132
132 131
132 133
133 132
133 134
134 133
134 135
135 134
135 136
136 135
136 137
137 136
137 138
138 137
138 139
139 138
139 140
140 139
140 141
141 140
141 142
142 141
142 143
143 142
143 144
144 143
144 145
145 144
145 146
146 145
146 147
147 146
147 148
148 147
148 149
149 148
149 150
150 149
150 151
151 150
        </DataArray>
        <DataArray type="Int64" Name="offsets" format="ascii">
     2 
     4 
     6 
     8 
     10 
     12 
     14 
     16 
     18 
     20 
     22 
     24 
     26 
     28 
     30 
     32 
     34 
     36 
     38 
     40 
     42 
     44 
     46 
     48 
     50 
     52 
     54 
     56 
     58 
     60 
     62 
     64 
     66 
     68 
     70 
     72 
     74 
     76 
     78 
     80 
     82 
     84 
     86 
     88 
     90 
     92 
     94 
     96 
     98 
     100 
     102 
     104 
     106 
     108 
     110 
     112 
     114 
     116 
     118 
     120 
     122 
     124 
     126 
     128 
     130 
     132 
     134 
     136 
     138 
     140 
     142 
     144 
     146 
     148 
     150 
     152 
     154 
     156 
     158 
     160 
     162 
     164 
     166 
     168 
     170 
     172 
     174 
     176 
     178 
     180 
     182 
     184 
     186 
     188 
     190 
     192 
     194 
     196 
     198 
     200 
     202 
     204 
     206 
     208 
     210 
     212 
     214 
     216 
     218 
     220 
     222 
     224 
     226 
     228 
     230 
     232 
     234 
     236 
     238 
     240 
     242 
     244 
     246 
     248 
     250 
     252 
     254 
     256 
     258 
     260 
     262 
     264 
     266 
     268 
     270 
     272 
     274 
     276 
     278 
     280 
     282 
     284 
     286 
     288 
     290 
     292 
     294 
     296 
     298 
     300 
     302 
     304 
     306 
     308 
     310 
     312 
     314 
     316 
     318 
     320 
     322 
     324 
     326 
     328 
     330 
     332 
     334 
     336 
     338 
     340 
     342 
     344 
     346 
     348 
     350 
     352 
     354 
     356 
     358 
     360 
     362 
     364 
     366 
     368 
     370 
     372 
     374 
     376 
     378 
     380 
     382 
     384 
     386 
     388 
     390 
     392 
     394 
     396 
     398 
     400 
     402 
     404 
     406 
     408 
     410 
     412 
     414 
     416 
     418 
     420 
     422 
     424 
     426 
     428 
     430 
     432 
     434 
     436 
     438 
     440 
     442 
     444 
     446 
     448 
     450 
     452 
     454 
     456 
     458 
     460 
     462 
     464 
     466 
     468 
     470 
     472 
     474 
     476 
     478 
     480 
     482 
     484 
     486 
     488 
     490 
     492 
     494 
     496 
     498 
     500 
     502 
     504 
     506 
     508 
     510 
     512 
     514 
     516 
     518 
     520 
     522 
     524 
     526 
     528 
     530 
     532 
     534 
     536 
     538 
     540 
     542 
     544 
     546 
     548 
     550 
     552 
     554 
     556 
     558 
     560 
     562 
     564 
     566 
     568 
     570 
     572 
     574 
     576 
     578 
     580 
     582 
     584 
     586 
     588 
     590 
     592 
     594 
     596 
     598 
     600 
     602 
     604 
        </DataArray>
      </Lines>
    </Piece>
  </PolyData>
</VTKFile>
