<VTKFile type="UnstructuredGrid" version="1.0" byte_order="LittleEndian" header_type="UInt64">
  <UnstructuredGrid>
    <Piece NumberOfPoints="20402" NumberOfCells="10000">
      <CellData Scalars="Scalars_">
        <DataArray type="Float32" Name="Scalars_" format="ascii">
     -86.199997      -86.199997      -86.199997      -86.199997      -86.199997      -86.199997      -86.199997      -86.199997      -86.199997      -86.199997      -86.199997      -86.199997      -86.199997      -86.199997      -86.199997      -86.199997      -86.199997      -86.199997      -86.199997      -86.199997      -86.199997      -86.199997      -86.199997      -86.199997      -86.199997      -86.199997      -86.199997      -86.199997      -86.199997      -86.199997      -86.199997      -86.199997      -86.199997      -86.199997      -86.199997      -86.199997      -86.199997      -86.199997      -86.199997      -86.199997      -86.199997      -86.199997      -86.199997      -86.199997      -86.199997      -86.199997      -86.199997      -86.199997      -86.199997      -86.199997      -86.199997      -86.199997      -86.199997      -86.199997      -86.199997      -86.199997      -86.199997      -86.199997      -86.199997      -86.199997      -86.199997      -86.199997      -86.199997      -86.199997      -86.199997      -86.199997      -86.199997      -86.199997      -86.199997      -86.199997      -86.199997      -86.199997      -86.199997      -86.199997      -86.199997      -86.199997      -86.199997      -86.199997      -86.199997      -86.199997      -86.199997      -86.199997      -86.199997      -86.199997      -86.199997      -86.199997      -86.199997      -86.199997      -86.199997      -86.199997      -86.199997      -86.199997      -86.199997      -86.199997      -86.199997      -86.199997      -86.199997      -86.199997      -86.199997      -86.199997      -86.199997      -86.199997      -86.199997      -86.199997      -86.199997      -86.199997      -86.199997      -86.199997      -86.199997      -86.199997      -86.199997      -86.199997      -86.199997      -86.199997      -86.199997      -86.199997      -86.199997      -86.199997      -86.199997      -86.199997      -86.199997      -86.199997      -86.199997      -86.199997      -86.199997      -86.199997      -86.199997      -86.199997      -86.199997      -86.199997      -86.199997      -86.199997      -86.199997      -86.199997      -86.199997      -86.199997      -86.199997      -86.199997      -86.199997      -86.199997      -86.199997      -86.199997      -86.199997      -86.199997      -86.199997      -86.199997      -86.199997      -86.199997      -86.199997      -86.199997      -86.199997      -86.199997      -86.199997      -86.199997      -86.199997      -86.199997      -86.199997      -86.199997      -86.199997      -86.199997      -86.199997      -86.199997      -86.199997      -86.199997      -86.199997      -86.199997      -86.199997      -86.199997      -86.199997      -86.199997      -86.199997      -86.199997      -86.199997      -86.199997      -86.199997      -86.199997      -86.199997      -86.199997      -86.199997      -86.199997      -86.199997      -86.199997      -86.199997      -86.199997      -86.199997      -86.199997      -86.199997      -86.199997      -86.199997      -86.199997      -86.199997      -86.199997      -86.199997      -86.199997      -86.199997      -86.199997      -86.199997      -86.199997      -86.199997      -86.199997      -86.199997      -86.199997      -86.199997      -86.199997      -86.199997      -86.199997      -86.199997      -86.199997      -86.199997      -86.199997      -86.199997      -86.199997      -86.199997      -86.199997      -86.199997      -86.199997      -86.199997      -86.199997      -86.199997      -86.199997      -86.199997      -86.199997      -86.199997      -86.199997      -86.199997      -86.199997      -86.199997      -86.199997      -86.199997      -86.199997      -86.199997      -86.199997      -86.199997      -86.199997      -86.199997      -86.199997      -86.199997      -86.199997      -86.199997      -86.199997      -86.199997      -86.199997      -86.199997      -86.199997      -86.199997      -86.199997      -86.199997      -86.199997      -86.199997      -86.199997      -86.199997      -86.199997      -86.199997      -86.199997      -86.199997      -86.199997      -86.199997      -86.199997      -86.199997      -86.199997      -86.199997      -86.199997      -86.199997      -86.199997      -86.199997      -86.199997      -86.199997      -86.199997      -86.199997      -86.199997      -86.199997      -86.199997      -86.199997      -86.199997      -86.199997      -86.199997      -86.199997      -86.199997      -86.199997      -86.199997      -86.199997      -86.199997      -86.199997      -86.199997      -86.199997      -86.199997      -86.199997      -86.199997      -86.199997      -86.199997      -86.199997      -86.199997      -86.199997      -86.199997      -86.199997      -86.199997      -86.199997      -86.199997      -86.199997      -86.199997      -86.199997      -86.199997      -86.199997      -86.199997      -86.199997      -86.199997      -86.199997      -86.199997      -86.199997      -86.199997      -86.199997      -86.199997      -86.199997      -86.199997      -86.199997      -86.199997      -86.199997      -86.199997      -86.199997      -86.199997      -86.199997      -86.199997      -86.199997      -86.199997      -86.199997      -86.199997      -86.199997      -86.199997      -86.199997      -86.199997      -86.199997      -86.199997      -86.199997      -86.199997      -86.199997      -86.199997      -86.199997      -86.199997      -86.199997      -86.199997      -86.199997      -86.199997      -86.199997      -86.199997      -86.199997      -86.199997      -86.199997      -86.199997      -86.199997      -86.199997      -86.199997      -86.199997      -86.199997      -86.199997      -86.199997      -86.199997      -86.199997      -86.199997      -86.199997      -86.199997      -86.199997      -86.199997      -86.199997      -86.199997      -86.199997      -86.199997      -86.199997      -86.199997      -86.199997      -86.199997      -86.199997      -86.199997      -86.199997      -86.199997      -86.199997      -86.199997      -86.199997      -86.199997      -86.199997      -86.199997      -86.199997      -86.199997      -86.199997      -86.199997      -86.199997      -86.199997      -86.199997      -86.199997      -86.199997      -86.199997      -86.199997      -86.199997      -86.199997      -86.199997      -86.199997      -86.199997      -86.199997      -86.199997      -86.199997      -86.199997      -86.199997      -86.199997      -86.199997      -86.199997      -86.199997      -86.199997      -86.199997      -86.199997      -86.199997      -86.199997      -86.199997      -86.199997      -86.199997      -86.199997      -86.199997      -86.199997      -86.199997      -86.199997      -86.199997      -86.199997      -86.199997      -86.199997      -86.199997      -86.199997      -86.199997      -86.199997      -86.199997      -86.199997      -86.199997      -86.199997      -86.199997      -86.199997      -86.199997      -86.199997      -86.199997      -86.199997      -86.199997      -86.199997      -86.199997      -86.199997      -86.199997      -86.199997      -86.199997      -86.199997      -86.199997      -86.199997      -86.199997      -86.199997      -86.199997      -86.199997      -86.199997      -86.199997      -86.199997      -86.199997      -86.199997      -86.199997      -86.199997      -86.199997      -86.199997      -86.199997      -86.199997      -86.199997      -86.199997      -86.199997      -86.199997      -86.199997      -86.199997      -86.199997      -86.199997      -86.199997      -86.199997      -86.199997      -86.199997      -86.199997      -86.199997      -86.199997      -86.199997      -86.199997      -86.199997      -86.199997      -86.199997      -86.199997      -86.199997      -86.199997      -86.199997      -86.199997      -86.199997      -86.199997      -86.199997      -86.199997      -86.199997      -86.199997      -86.199997      -86.199997      -86.199997      -86.199997      -86.199997      -86.199997      -86.199997      -86.199997      -86.199997      -86.199997      -86.199997      -86.199997      -86.199997      -86.199997      -86.199997      -86.199997      -86.199997      -86.199997      -86.199997      -86.199997      -86.199997      -86.199997      -86.199997      -86.199997      -86.199997      -86.199997      -86.199997      -86.199997      -86.199997      -86.199997      -86.199997      -86.199997      -86.199997      -86.199997      -86.199997      -86.199997      -86.199997      -86.199997      -86.199997      -86.199997      -86.199997      -86.199997      -86.199997      -86.199997      -86.199997      -86.199997      -86.199997      -86.199997      -86.199997      -86.199997      -86.199997      -86.199997      -86.199997      -86.199997      -86.199997      -86.199997      -86.199997      -86.199997      -86.199997      -86.199997      -86.199997      -86.199997      -86.199997      -86.199997      -86.199997      -86.199997      -86.199997      -86.199997      -86.199997      -86.199997      -86.199997      -86.199997      -86.199997      -86.199997      -86.199997      -86.199997      -86.199997      -86.199997      -86.199997      -86.199997      -86.199997      -86.199997      -86.199997      -86.199997      -86.199997      -86.199997      -86.199997      -86.199997      -86.199997      -86.199997      -86.199997      -86.199997      -86.199997      -86.199997      -86.199997      -86.199997      -86.199997      -86.199997      -86.199997      -86.199997      -86.199997      -86.199997      -86.199997      -86.199997      -86.199997      -86.199997      -86.199997      -86.199997      -86.199997      -86.199997      -86.199997      -86.199997      -86.199997      -86.199997      -86.199997      -86.199997      -86.199997      -86.199997      -86.199997      -86.199997      -86.199997      -86.199997      -86.199997      -86.199997      -86.199997      -86.199997      -86.199997      -86.199997      -86.199997      -86.199997      -86.199997      -86.199997      -86.199997      -86.199997      -86.199997      -86.199997      -86.199997      -86.199997      -86.199997      -86.199997      -86.199997      -86.199997      -86.199997      -86.199997      -86.199997      -86.199997      -86.199997      -86.199997      -86.199997      -86.199997      -86.199997      -86.199997      -86.199997      -86.199997      -86.199997      -86.199997      -86.199997      -86.199997      -86.199997      -86.199997      -86.199997      -86.199997      -86.199997      -86.199997      -86.199997      -86.199997      -86.199997      -86.199997      -86.199997      -86.199997      -86.199997      -86.199997      -86.199997      -86.199997      -86.199997      -86.199997      -86.199997      -86.199997      -86.199997      -86.199997      -86.199997      -86.199997      -86.199997      -86.199997      -86.199997      -86.199997      -86.199997      -86.199997      -86.199997      -86.199997      -86.199997      -86.199997      -86.199997      -86.199997      -86.199997      -86.199997      -86.199997      -86.199997      -86.199997      -86.199997      -86.199997      -86.199997      -86.199997      -86.199997      -86.199997      -86.199997      -86.199997      -86.199997      -86.199997      -86.199997      -86.199997      -86.199997      -86.199997      -86.199997      -86.199997      -86.199997      -86.199997      -86.199997      -86.199997      -86.199997      -86.199997      -86.199997      -86.199997      -86.199997      -86.199997      -86.199997      -86.199997      -86.199997      -86.199997      -86.199997      -86.199997      -86.199997      -86.199997      -86.199997      -86.199997      -86.199997      -86.199997      -86.199997      -86.199997      -86.199997      -86.199997      -86.199997      -86.199997      -86.199997      -86.199997      -86.199997      -86.199997      -86.199997      -86.199997      -86.199997      -86.199997      -86.199997      -86.199997      -86.199997      -86.199997      -86.199997      -86.199997      -86.199997      -86.199997      -86.199997      -86.199997      -86.199997      -86.199997      -86.199997      -86.199997      -86.199997      -86.199997      -86.199997      -86.199997      -86.199997      -86.199997      -86.199997      -86.199997      -86.199997      -86.199997      -86.199997      -86.199997      -86.199997      -86.199997      -86.199997      -86.199997      -86.199997      -86.199997      -86.199997      -86.199997      -86.199997      -86.199997      -86.199997      -86.199997      -86.199997      -86.199997      -86.199997      -86.199997      -86.199997      -86.199997      -86.199997      -86.199997      -86.199997      -86.199997      -86.199997      -86.199997      -86.199997      -86.199997      -86.199997      -86.199997      -86.199997      -86.199997      -86.199997      -86.199997      -86.199997      -86.199997      -86.199997      -86.199997      -86.199997      -86.199997      -86.199997      -86.199997      -86.199997      -86.199997      -86.199997      -86.199997      -86.199997      -86.199997      -86.199997      -86.199997      -86.199997      -86.199997      -86.199997      -86.199997      -86.199997      -86.199997      -86.199997      -86.199997      -86.199997      -86.199997      -86.199997      -86.199997      -86.199997      -86.199997      -86.199997      -86.199997      -86.199997      -86.199997      -86.199997      -86.199997      -86.199997      -86.199997      -86.199997      -86.199997      -86.199997      -86.199997      -86.199997      -86.199997      -86.199997      -86.199997      -86.199997      -86.199997      -86.199997      -86.199997      -86.199997      -86.199997      -86.199997      -86.199997      -86.199997      -86.199997      -86.199997      -86.199997      -86.199997      -86.199997      -86.199997      -86.199997      -86.199997      -86.199997      -86.199997      -86.199997      -86.199997      -86.199997      -86.199997      -86.199997      -86.199997      -86.199997      -86.199997      -86.199997      -86.199997      -86.199997      -86.199997      -86.199997      -86.199997      -86.199997      -86.199997      -86.199997      -86.199997      -86.199997      -86.199997      -86.199997      -86.199997      -86.199997      -86.199997      -86.199997      -86.199997      -86.199997      -86.199997      -86.199997      -86.199997      -86.199997      -86.199997      -86.199997      -86.199997      -86.199997      -86.199997      -86.199997      -86.199997      -86.199997      -86.199997      -86.199997      -86.199997      -86.199997      -86.199997      -86.199997      -86.199997      -86.199997      -86.199997      -86.199997      -86.199997      -86.199997      -86.199997      -86.199997      -86.199997      -86.199997      -86.199997      -86.199997      -86.199997      -86.199997      -86.199997      -86.199997      -86.199997      -86.199997      -86.199997      -86.199997      -86.199997      -86.199997      -86.199997      -86.199997      -86.199997      -86.199997      -86.199997      -86.199997      -86.199997      -86.199997      -86.199997      -86.199997      -86.199997      -86.199997      -86.199997      -86.199997      -86.199997      -86.199997      -86.199997      -86.199997      -86.199997      -86.199997      -86.199997      -86.199997      -86.199997      -86.199997      -86.199997      -86.199997      -86.199997      -86.199997      -86.199997      -86.199997      -86.199997      -86.199997      -86.199997      -86.199997      -86.199997      -86.199997      -86.199997      -86.199997      -86.199997      -86.199997      -86.199997      -86.199997      -86.199997      -86.199997      -86.199997      -86.199997      -86.199997      -86.199997      -86.199997      -86.199997      -86.199997      -86.199997      -86.199997      -86.199997      -86.199997      -86.199997      -86.199997      -86.199997      -86.199997      -86.199997      -86.199997      -86.199997      -86.199997      -86.199997      -86.199997      -86.199997      -86.199997      -86.199997      -86.199997      -86.199997      -86.199997      -86.199997      -86.199997      -86.199997      -86.199997      -86.199997      -86.199997      -86.199997      -86.199997      -86.199997      -86.199997      -86.199997      -86.199997      -86.199997      -86.199997      -86.199997      -86.199997      -86.199997      -86.199997      -86.199997      -86.199997      -86.199997      -86.199997      -86.199997      -86.199997      -86.199997      -86.199997      -86.199997      -86.199997      -86.199997      -86.199997      -86.199997      -86.199997      -86.199997      -86.199997      -86.199997      -86.199997      -86.199997      -86.199997      -86.199997      -86.199997      -86.199997      -86.199997      -86.199997      -86.199997      -86.199997      -86.199997      -86.199997      -86.199997      -86.199997      -86.199997      -86.199997      -86.199997      -86.199997      -86.199997      -86.199997      -86.199997      -86.199997      -86.199997      -86.199997      -86.199997      -86.199997      -86.199997      -86.199997      -86.199997      -86.199997      -86.199997      -86.199997      -86.199997      -86.199997      -86.199997      -86.199997      -86.199997      -86.199997      -86.199997      -86.199997      -86.199997      -86.199997      -86.199997      -86.199997      -86.199997      -86.199997      -86.199997      -86.199997      -86.199997      -86.199997      -86.199997      -86.199997      -86.199997      -86.199997      -86.199997      -86.199997      -86.199997      -86.199997      -86.199997      -86.199997      -86.199997      -86.199997      -86.199997      -86.199997      -86.199997      -86.199997      -86.199997      -86.199997      -86.199997      -86.199997      -86.199997      -86.199997      -86.199997      -86.199997      -86.199997      -86.199997      -86.199997      -86.199997      -86.199997      -86.199997      -86.199997      -86.199997      -86.199997      -86.199997      -86.199997      -86.199997      -86.199997      -86.199997      -86.199997      -86.199997      -86.199997      -86.199997      -86.199997      -86.199997      -86.199997      -86.199997      -86.199997      -86.199997      -86.199997      -86.199997      -86.199997      -86.199997      -86.199997      -86.199997      -86.199997      -86.199997      -86.199997      -86.199997      -86.199997      -86.199997      -86.199997      -86.199997      -86.199997      -86.199997      -86.199997      -86.199997      -86.199997      -86.199997      -86.199997      -86.199997      -86.199997      -86.199997      -86.199997      -86.199997      -86.199997      -86.199997      -86.199997      -86.199997      -86.199997      -86.199997      -86.199997      -86.199997      -86.199997      -86.199997      -86.199997      -86.199997      -86.199997      -86.199997      -86.199997      -86.199997      -86.199997      -86.199997      -86.199997      -86.199997      -86.199997      -86.199997      -86.199997      -86.199997      -86.199997      -86.199997      -86.199997      -86.199997      -86.199997      -86.199997      -86.199997      -86.199997      -86.199997      -86.199997      -86.199997      -86.199997      -86.199997      -86.199997      -86.199997      -86.199997      -86.199997      -86.199997      -86.199997      -86.199997      -86.199997      -86.199997      -86.199997      -86.199997      -86.199997      -86.199997      -86.199997      -86.199997      -86.199997      -86.199997      -86.199997      -86.199997      -86.199997      -86.199997      -86.199997      -86.199997      -86.199997      -86.199997      -86.199997      -86.199997      -86.199997      -86.199997      -86.199997      -86.199997      -86.199997      -86.199997      -86.199997      -86.199997      -86.199997      -86.199997      -86.199997      -86.199997      -86.199997      -86.199997      -86.199997      -86.199997      -86.199997      -86.199997      -86.199997      -86.199997      -86.199997      -86.199997      -86.199997      -86.199997      -86.199997      -86.199997      -86.199997      -86.199997      -86.199997      -86.199997      -86.199997      -86.199997      -86.199997      -86.199997      -86.199997      -86.199997      -86.199997      -86.199997      -86.199997      -86.199997      -86.199997      -86.199997      -86.199997      -86.199997      -86.199997      -86.199997      -86.199997      -86.199997      -86.199997      -86.199997      -86.199997      -86.199997      -86.199997      -86.199997      -86.199997      -86.199997      -86.199997      -86.199997      -86.199997      -86.199997      -86.199997      -86.199997      -86.199997      -86.199997      -86.199997      -86.199997      -86.199997      -86.199997      -86.199997      -86.199997      -86.199997      -86.199997      -86.199997      -86.199997      -86.199997      -86.199997      -86.199997      -86.199997      -86.199997      -86.199997      -86.199997      -86.199997      -86.199997      -86.199997      -86.199997      -86.199997      -86.199997      -86.199997      -86.199997      -86.199997      -86.199997      -86.199997      -86.199997      -86.199997      -86.199997      -86.199997      -86.199997      -86.199997      -86.199997      -86.199997      -86.199997      -86.199997      -86.199997      -86.199997      -86.199997      -86.199997      -86.199997      -86.199997      -86.199997      -86.199997      -86.199997      -86.199997      -86.199997      -86.199997      -86.199997      -86.199997      -86.199997      -86.199997      -86.199997      -86.199997      -86.199997      -86.199997      -86.199997      -86.199997      -86.199997      -86.199997      -86.199997      -86.199997      -86.199997      -86.199997      -86.199997      -86.199997      -86.199997      -86.199997      -86.199997      -86.199997      -86.199997      -86.199997      -86.199997      -86.199997      -86.199997      -86.199997      -86.199997      -86.199997      -86.199997      -86.199997      -86.199997      -86.199997      -86.199997      -86.199997      -86.199997      -86.199997      -86.199997      -86.199997      -86.199997      -86.199997      -86.199997      -86.199997      -86.199997      -86.199997      -86.199997      -86.199997      -86.199997      -86.199997      -86.199997      -86.199997      -86.199997      -86.199997      -86.199997      -86.199997      -86.199997      -86.199997      -86.199997      -86.199997      -86.199997      -86.199997      -86.199997      -86.199997      -86.199997      -86.199997      -86.199997      -86.199997      -86.199997      -86.199997      -86.199997      -86.199997      -86.199997      -86.199997      -86.199997      -86.199997      -86.199997      -86.199997      -86.199997      -86.199997      -86.199997      -86.199997      -86.199997      -86.199997      -86.199997      -86.199997      -86.199997      -86.199997      -86.199997      -86.199997      -86.199997      -86.199997      -86.199997      -86.199997      -86.199997      -86.199997      -86.199997      -86.199997      -86.199997      -86.199997      -86.199997      -86.199997      -86.199997      -86.199997      -86.199997      -86.199997      -86.199997      -86.199997      -86.199997      -86.199997      -86.199997      -86.199997      -86.199997      -86.199997      -86.199997      -86.199997      -86.199997      -86.199997      -86.199997      -86.199997      -86.199997      -86.199997      -86.199997      -86.199997      -86.199997      -86.199997      -86.199997      -86.199997      -86.199997      -86.199997      -86.199997      -86.199997      -86.199997      -86.199997      -86.199997      -86.199997      -86.199997      -86.199997      -86.199997      -86.199997      -86.199997      -86.199997      -86.199997      -86.199997      -86.199997      -86.199997      -86.199997      -86.199997      -86.199997      -86.199997      -86.199997      -86.199997      -86.199997      -86.199997      -86.199997      -86.199997      -86.199997      -86.199997      -86.199997      -86.199997      -86.199997      -86.199997      -86.199997      -86.199997      -86.199997      -86.199997      -86.199997      -86.199997      -86.199997      -86.199997      -86.199997      -86.199997      -86.199997      -86.199997      -86.199997      -86.199997      -86.199997      -86.199997      -86.199997      -86.199997      -86.199997      -86.199997      -86.199997      -86.199997      -86.199997      -86.199997      -86.199997      -86.199997      -86.199997      -86.199997      -86.199997      -86.199997      -86.199997      -86.199997      -86.199997      -86.199997      -86.199997      -86.199997      -86.199997      -86.199997      -86.199997      -86.199997      -86.199997      -86.199997      -86.199997      -86.199997      -86.199997      -86.199997      -86.199997      -86.199997      -86.199997      -86.199997      -86.199997      -86.199997      -86.199997      -86.199997      -86.199997      -86.199997      -86.199997      -86.199997      -86.199997      -86.199997      -86.199997      -86.199997      -86.199997      -86.199997      -86.199997      -86.199997      -86.199997      -86.199997      -86.199997      -86.199997      -86.199997      -86.199997      -86.199997      -86.199997      -86.199997      -86.199997      -86.199997      -86.199997      -86.199997      -86.199997      -86.199997      -86.199997      -86.199997      -86.199997      -86.199997      -86.199997      -86.199997      -86.199997      -86.199997      -86.199997      -86.199997      -86.199997      -86.199997      -86.199997      -86.199997      -86.199997      -86.199997      -86.199997      -86.199997      -86.199997      -86.199997      -86.199997      -86.199997      -86.199997      -86.199997      -86.199997      -86.199997      -86.199997      -86.199997      -86.199997      -86.199997      -86.199997      -86.199997      -86.199997      -86.199997      -86.199997      -86.199997      -86.199997      -86.199997      -86.199997      -86.199997      -86.199997      -86.199997      -86.199997      -86.199997      -86.199997      -86.199997      -86.199997      -86.199997      -86.199997      -86.199997      -86.199997      -86.199997      -86.199997      -86.199997      -86.199997      -86.199997      -86.199997      -86.199997      -86.199997      -86.199997      -86.199997      -86.199997      -86.199997      -86.199997      -86.199997      -86.199997      -86.199997      -86.199997      -86.199997      -86.199997      -86.199997      -86.199997      -86.199997      -86.199997      -86.199997      -86.199997      -86.199997      -86.199997      -86.199997      -86.199997      -86.199997      -86.199997      -86.199997      -86.199997      -86.199997      -86.199997      -86.199997      -86.199997      -86.199997      -86.199997      -86.199997      -86.199997      -86.199997      -86.199997      -86.199997      -86.199997      -86.199997      -86.199997      -86.199997      -86.199997      -86.199997      -86.199997      -86.199997      -86.199997      -86.199997      -86.199997      -86.199997      -86.199997      -86.199997      -86.199997      -86.199997      -86.199997      -86.199997      -86.199997      -86.199997      -86.199997      -86.199997      -86.199997      -86.199997      -86.199997      -86.199997      -86.199997      -86.199997      -86.199997      -86.199997      -86.199997      -86.199997      -86.199997      -86.199997      -86.199997      -86.199997      -86.199997      -86.199997      -86.199997      -86.199997      -86.199997      -86.199997      -86.199997      -86.199997      -86.199997      -86.199997      -86.199997      -86.199997      -86.199997      -86.199997      -86.199997      -86.199997      -86.199997      -86.199997      -86.199997      -86.199997      -86.199997      -86.199997      -86.199997      -86.199997      -86.199997      -86.199997      -86.199997      -86.199997      -86.199997      -86.199997      -86.199997      -86.199997      -86.199997      -86.199997      -86.199997      -86.199997      -86.199997      -86.199997      -86.199997      -86.199997      -86.199997      -86.199997      -86.199997      -86.199997      -86.199997      -86.199997      -86.199997      -86.199997      -86.199997      -86.199997      -86.199997      -86.199997      -86.199997      -86.199997      -86.199997      -86.199997      -86.199997      -86.199997      -86.199997      -86.199997      -86.199997      -86.199997      -86.199997      -86.199997      -86.199997      -86.199997      -86.199997      -86.199997      -86.199997      -86.199997      -86.199997      -86.199997      -86.199997      -86.199997      -86.199997      -86.199997      -86.199997      -86.199997      -86.199997      -86.199997      -86.199997      -86.199997      -86.199997      -86.199997      -86.199997      -86.199997      -86.199997      -86.199997      -86.199997      -86.199997      -86.199997      -86.199997      -86.199997      -86.199997      -86.199997      -86.199997      -86.199997      -86.199997      -86.199997      -86.199997      -86.199997      -86.199997      -86.199997      -86.199997      -86.199997      -86.199997      -86.199997      -86.199997      -86.199997      -86.199997      -86.199997      -86.199997      -86.199997      -86.199997      -86.199997      -86.199997      -86.199997      -86.199997      -86.199997      -86.199997      -86.199997      -86.199997      -86.199997      -86.199997      -86.199997      -86.199997      -86.199997      -86.199997      -86.199997      -86.199997      -86.199997      -86.199997      -86.199997      -86.199997      -86.199997      -86.199997      -86.199997      -86.199997      -86.199997      -86.199997      -86.199997      -86.199997      -86.1999