# vtk DataFile Version 4.1
vtk output
ASCII
DATASET POLYDATA
POINTS 1300 float
16125 47875 54078.1 15093.8 45354.6 51500 15403.1 46110.7 52273.4 
19764.3 43750 46859.4 15186.6 45581.5 51732 12000 42777.5 45054.7 
18329.9 44134.8 47664.9 17929.7 41945.3 42171.3 12655.1 42928.7 45430.1 
11608.1 40914.1 40671.9 19334 43865.4 47101 25782.7 39625 46085.9 
18049.8 42602.1 43819.4 23397.4 39367.2 40156.2 12341 42324.3 44002.6 
7617.19 36561.2 43507.8 17747.9 42232.1 42428.4 16125 41225.5 37062.5 
9412.18 38751.1 43695.8 6776.72 36789.1 37062.5 25010.3 39704.3 45824.2 
28551.6 36273.4 44281.2 21793.1 40337.7 41255.1 21539.1 40203.5 35257.8 
8419.29 36988.1 43892.5 6807.65 31632.8 45570.3 27449.3 37346.7 44207.7 
29531.2 35362.8 39898.4 7935.84 35381.5 44395.8 5554.69 32148.4 40736.8 
16130.1 41497.1 37933.8 13031.2 41224.5 32937.5 7046.6 36478.5 37813.6 
4728.66 33437.5 32164.1 7018.03 32295.2 44834.4 5489.72 26992.2 43250 
28240.4 36592.9 42570.2 31088.4 31632.8 42992.2 28940.1 36064.6 40505.8 
29273.4 36597.2 36031.2 21676.2 40275.9 38496.4 25664.1 38851.6 36077.7 
21767.5 40372.7 35597.3 22828.1 41230.7 29585.9 14208.8 41328.1 34836.1 
17156.2 41230.7 29585.9 11562.9 41189.4 40849.1 10399.5 39882.8 36546.9 
5948.21 28583.1 43725.3 4207.87 27250 38351.6 29066.8 36267 38805.5 
31851.6 32664.1 36077.7 15763.7 41264.8 31026.5 14578.1 41230.7 26750 
10281.5 40103.1 36768.6 8648.44 39176.4 32421.9 5515.5 27207.1 43211.5 
4265.62 23640.6 41515.4 5497.45 27056.6 43238.4 6128.06 22609.4 47890.6 
5467.03 33671.7 34033.1 4207.87 27507.8 31390.6 4950.79 31505.4 32372.2 
4207.87 30085.9 27265.6 24448.8 39466.2 36340.2 26953.1 39680.7 31906.2 
30318.6 32353.8 42288.4 31593.8 28539.1 40960.6 30857.4 31849.1 42781 
30046.9 26734.4 45639.4 22718 41169.1 29801.5 23343.8 41746.3 25203.1 
31016.1 33744.9 36896 31134.8 33437.5 31132.8 15218.3 41249.1 29059.3 
10453.1 40516 27781.2 4599.34 28829.8 31199.1 4722.47 24671.9 27007.8 
14997.8 41282.9 27129.4 15609.4 41547.2 22367.2 31211.2 29683.5 41358.9 
31645.3 27250 36031.2 30878.8 34014.3 32897.3 29602.4 36789.1 29328.1 
31521.2 28231.9 37000.5 31595.8 29570.3 32679.7 23301.7 41401.7 25939.4 
24250.2 40398.4 21593.8 4723.71 26359.9 27933.4 5039.06 26334.2 23140.6 
4445.89 30684.6 27672.5 4208.91 30601.6 22882.8 31479 28882.4 41080.1 
30636.8 24929.7 39382.8 29932.3 27002.6 44661.1 29060 22867.2 45828.1 
22795.1 41212.2 29650.6 26301.4 40656.2 27523.4 29874.4 35859.4 29894.8 
29083.7 35500 26492.2 23730.1 40741.5 22478.3 22364.1 40914.1 19531.2 
8535.1 39054.1 32743.2 6843.75 37945.1 29843.8 24094.2 40501.4 21859.1 
25423.8 37820.3 20304.7 5253.56 25893.9 24428.4 7359.38 23125 20357.3 
14704 41246.3 26863.8 11742.2 40714 24429.7 4723.09 25448.4 27433.6 
5242.22 20546.9 30617.2 24918.5 38839.1 20895.4 23876.9 38078.1 17984.4 
29321.7 24107.8 45478 28757.8 20997.5 42476.6 15769.1 41571.7 23111.6 
17929.7 42232 18500 31608.1 27544.6 36322 30114.9 25187.5 32164.1 
4722.68 24904.8 27135.5 6801.47 20804.7 24687.5 17108.7 41981.1 20252.4 
15093.8 41031.6 16953.1 29637.2 35751.6 28874 29606.5 31375 27007.8 
4569.74 30267.2 23549.3 5226.75 29312.5 19789.1 25519.4 40481.6 27736.8 
27478 38335.9 24945.3 30519.7 25333.5 39628.6 29015.6 20725.3 37835.9 
6318.33 21615.8 25601.1 7359.38 18690.6 26492.2 7336.48 38270.4 30193.5 
7101.56 38129.7 26750 29138.5 23239.4 45723 27514.1 19515.6 48664.1 
5521.79 20777.2 30018.8 6266.25 17710.9 31390.6 29087.9 35423.6 26702.2 
28046.2 34468.8 23398.4 7431.46 23595.8 20669.9 9421.88 22433 17984.4 
28927 21930.6 43376.9 27210.9 17917.2 44796.9 5203.55 29202.2 20623.8 
6328.12 26683.8 18500 27987.3 34634.1 23781.5 26347.8 33695.3 20046.9 
5331.11 29283.5 19880.4 6070.31 29570.3 16923.2 23975.2 38067 18402.3 
22570.3 36531.2 15355.7 5730.31 29438.4 18283.5 5759.91 32406.2 16953.1 
15657.3 41554.6 22590.5 12639.4 40398.4 20562.5 29265.1 21872.3 37814.7 
27896.7 20031.2 34226.6 15594.1 41187.7 17142.6 14578.1 40503.6 13859.4 
28274.9 20405.5 43916.6 26953.1 17580 41187.5 4661.31 31393.4 28899.5 
4722.47 33695.3 24687.5 28881.3 21052.2 37787.3 27004.7 18226.6 37578.1 
29957.5 25219.9 32556.2 27846.2 22609.4 28812.5 6883.25 21078.6 24865.6 
9421.88 19343.4 22109.4 29324.1 24436.7 31433.1 29074.4 25960.9 28039.1 
6418.88 18043.5 31130.6 7875 14518.2 32421.9 26618.6 33418.2 20736.6 
25441.3 31632.8 18242.2 9114.87 20019.1 22256.8 11226.6 19773.4 19485.9 
6906.45 37871.5 27130 6136.31 37046.9 24171.9 8703.2 23210.4 18597.8 
10401.6 24414.1 14117.2 6309.15 18883.7 30421 8390.62 15648.4 29476.6 
5967.39 31346.6 17056 7332.56 33953.1 13601.6 4853.64 33503.8 24904.3 
5243.25 34984.4 21851.6 27203.4 18052.6 44516.9 25664.1 14846.1 45054.7 
9425.79 24185.2 16073.5 8648.44 26476.6 14328.6 27726.2 20042.9 34652.9 
25723.9 17968.8 31648.4 6376.9 32128.6 16019.6 7681.12 30343.8 12828.1 
28048 23131.8 29050.8 26437.5 22816.7 25460.9 27032.9 18553.3 37861.6 
24960.8 16164.1 38351.6 23210.5 36650.2 16479.5 22828.1 32664.1 14025.4 
25425.3 31700.4 18376.5 24375 30343.8 16583.9 7438.16 15575.7 32034.5 
6843.75 14527.5 35773.4 23321 41560.2 25600.7 20250 42260.9 23914.1 
24514.2 30710 16785.7 23343.8 30343.8 14567.8 7212.32 15177.5 33455.3 
9679.69 12227.8 35000 7042.99 38052.2 26864 8648.44 39653.9 24429.7 
7359.79 33713.2 14001.8 9370.31 35757.8 11796.9 5398.25 34952.6 22459.2 
7101.56 37613 20304.7 25653.9 15230.6 44738.2 23868.7 12554.7 44539.1 
26324.6 18591 32549.8 23886.2 15648.4 33195.3 15208.1 40927.7 15895 
12257.8 38670.1 15406.2 26811.6 23197.6 26069.3 26003.3 24929.7 22882.8 
25853.3 18331.7 31747.1 24117.2 17938.8 28554.7 8742.08 13348.6 34413 
8390.62 12424.8 37578.1 6968.02 14668.2 35568.1 6761.25 14101.6 38351.6 
9640.29 12477.3 34938.9 11742.2 11207.9 36031.2 8283.17 13897.3 34125.7 
10710.9 12255.6 32679.7 6181.79 36176.4 21468.1 6300.28 35757.8 17984.4 
24069.4 30570.9 15942.9 22828.1 26992.2 15098.9 24024.5 12970.1 44628.9 
21539.1 10361.2 44796.9 23345.1 30278.9 14653.6 21539.1 29312.5 11743.2 
26426 24756.6 23889.8 27001.6 28023.4 22109.4 24095.3 17774.1 29143.1 
22054.7 16901.4 27007.8 7048.35 37211.4 20387.1 9020.72 38335.9 17984.4 
22982.8 27915.5 15045 21539.1 26685.9 13085.9 26101.5 24999.6 22951.7 
25406.2 25960.9 20282 6666.37 13967.3 38032.2 6127.03 12812.5 41187.5 
6461.47 13528.5 39231.2 8648.44 11007.8 40624.4 22874.5 27269.2 15082.7 
23343.8 25187.5 17418.2 21753.5 27060.8 13253.9 20286.1 26992.2 10507.8 
8535.51 37924.1 18272.2 9358.97 37562.5 15406.2 22896 17473.9 27529 
21796.9 18310.1 24171.9 22643.6 17302.1 27372.6 20250 14341.8 29843.8 
29006.5 25978.5 28403.3 28546.4 27765.6 25460.9 22102.4 16942.3 27157.8 
20250 15734 26750 22203.6 18562.9 24547.7 21796.9 19648.7 22109.4 
21918.9 18385.9 24284.6 18703.1 16568.3 23914.1 20294.5 14690.5 29776.8 
18703.1 13128.1 31390.6 29466.4 32870.7 27227.9 28528.9 31117.2 23914.1 
19667.9 17113.6 24025.2 17512 17710.9 21078.1 26549.7 22930.9 25643.4 
24392.5 21578.1 23140.6 19180.5 13596.8 30906.5 15867.2 12554.7 30329.5 
25095.7 22268.2 23655.7 24022.3 23125 20562.5 18732.9 13216 31357.6 
16903.6 11781.2 33195.3 18158.8 17531.7 21962.3 19218.8 19449.6 19789.1 
17921.5 13200.8 30687.2 16640.6 13775.7 28039.1 24093.7 22644.6 21428.5 
21848.4 21835.9 19015.6 17452.4 12211.7 32644 18009.1 11781.2 35773.4 
21849.4 21745.6 19282.2 20300.5 21062.5 17984.4 20765.2 21267.4 18373.7 
19734.4 22152.5 15664.1 15911.7 43948.5 49732.1 18187.5 44856.5 52273.4 
17425.5 44391.7 51000.2 19734.4 44325.4 50984.4 15557.6 44771.5 50226 
15609.4 44811.2 47117.2 19106.7 44272.4 50773.4 21023.4 43780.9 49437.5 
15665 44517.8 47534.5 15867.2 43808.8 45054.7 15543.8 43980.3 45778.2 
14062.5 43261.2 44023.4 19635.2 43784.6 46931.9 21539.1 41747.3 44281.2 
14534.6 43381.9 44316.7 14578.1 42737.3 42734.4 21477.2 41777.5 44392.9 
22312.5 40855.3 43250 12237.5 41839.5 42432.6 13546.9 41698.8 40671.9 
11765.2 41384.4 41324.2 9884.91 39882.8 41187.5 17875.1 42031.3 42248.4 
19218.8 41217.2 40929.7 10255.6 40161.4 41007.9 8906.25 38976.3 39640.6 
9198.4 39225.4 39721.1 8390.62 38470 37578.1 22916.1 39658.3 40485.9 
25664.1 38596.8 41445.3 21452.5 40314.7 39369.5 19785.9 40398.4 37835.9 
24013.9 39186.6 40590.5 25457.8 38335.9 39382.8 7857.78 36689.2 43623.2 
6466.31 36015.6 39898.4 6829.93 36666.3 37132.8 6328.12 36866.4 35257.8 
16236.3 41386.2 37215.6 16898.4 41228.6 34484.4 6161.47 33242.3 41535.2 
5296.88 33726.2 39382.8 6887.58 31884.5 45290.6 7799.72 32148.4 47117.2 
21607.6 40254.3 35359.6 19734.4 40715 34226.6 7234.18 31984.8 45984.8 
7359.38 29828.1 47717.4 25349.5 38393.1 39708.9 27468.8 37103.6 39382.8 
5882.32 32739.1 41167.9 5750.62 30343.8 42218.8 29353.9 35573.4 40080.7 
30597.6 33695.3 40414.1 20095.8 40662.5 34279.8 18703.1 41228.6 32421.9 
10364.1 39948.9 36613.4 11742.2 40713 35000 5627.5 32160.9 40875.4 
4881.28 30085.9 40156.2 5576.55 32152.2 40778.4 4723.5 31632.8 38609.4 
29194.9 36471.7 37085.5 27847.2 37820.3 36031.2 25029.2 39761.1 34178.9 
24375 40335.5 32421.9 16158.4 41273.7 37108.4 13031.2 41031.6 37062.5 
30406.3 33804.8 40235.1 31335.9 31940.1 40156.2 29249.9 36559.6 36347.5 
30631.6 35757.8 34484.4 17069 41282.6 29866.6 19218.8 41535.9 28812.5 
29266.4 36586 36126.1 29015.6 37622.3 34226.6 13263.7 41255 33039.7 
12515.6 41215.2 31132.8 5488.79 33745.8 39466.2 5241.19 34210.9 37835.9 
4677.71 27898.7 39658.1 4207.87 29312.5 37320.3 5315.44 34071.4 38325.1 
4727.62 32921.9 35515.6 31125 32369.3 39931.2 32153.7 30343.8 38351.6 
31669.4 32739.3 36147.7 32162 31117.2 35000 29276.2 37096.1 34826.8 
30106.7 37046.9 32679.7 18854.9 41496.8 28808.4 20765.6 41745.2 26750 
12464.9 41151.8 31503.3 10710.9 40685.1 30101.6 13101 41233.6 32968.2 
11226.6 40687.2 32937.5 18319.1 41432.6 29125.8 18445.3 41745.2 26234.4 
6565.72 36857.7 35517 6770.53 37304.7 32421.9 4334.72 27244.7 38451.7 
4207.87 25960.9 36546.9 4376.18 27751.4 31200 4207.87 25187.5 30617.2 
4348.33 30150.4 27325.2 4207.87 28023.4 25976.6 6573.15 37003.5 33041 
5755.78 36015.6 30875 26722.4 39531.6 32411.6 29015.6 38460.7 31132.8 
[...]
CELL_DATA 1299
SCALARS radius float
LOOKUP_TABLE default
83.3262 100 86.4222 96.4176 89.6332 96.4176 83.3262 92.9635 77.463 
92.9635 86.4222 92.9635 80.3411 89.6332 77.463 89.6332 77.463 86.4222 
74.6879 89.6332 80.3411 89.6332 74.6879 83.3262 66.9452 86.4222 72.0123 
80.3411 62.2346 86.4222 72.0123 83.3262 74.6879 74.6879 62.2346 83.3262 
72.0123 80.3411 64.547 83.3262 72.0123 80.3411 72.0123 83.3262 72.0123 
80.3411 69.4326 72.0123 60.0051 77.463 66.9452 80.3411 69.4326 74.6879 
69.4326 66.9452 62.2346 64.547 53.7845 80.3411 69.4326 77.463 62.2346 
77.463 64.547 80.3411 72.0123 77.463 69.4326 77.463 66.9452 74.6879 
66.9452 77.463 69.4326 74.6879 64.547 74.6879 64.547 77.463 66.9452 
72.0123 64.547 72.0123 60.0051 72.0123 62.2346 72.0123 62.2346 69.4326 
60.0051 74.6879 66.9452 72.0123 57.8555 74.6879 66.9452 69.4326 60.0051 
66.9452 55.7829 72.0123 64.547 64.547 57.8555 66.9452 57.8555 72.0123 
60.0051 69.4326 62.2346 62.2346 57.8555 64.547 57.8555 69.4326 62.2346 
69.4326 60.0051 66.9452 53.7845 64.547 55.7829 66.9452 53.7845 64.547 
55.7829 72.0123 64.547 72.0123 64.547 60.0051 53.7845 69.4326 62.2346 
62.2346 55.7829 66.9452 60.0051 64.547 60.0051 62.2346 55.7829 62.2346 
53.7845 62.2346 55.7829 62.2346 53.7845 57.8555 51.8578 60.0051 53.7845 
55.7829 51.8578 66.9452 57.8555 69.4326 62.2346 57.8555 51.8578 60.0051 
53.7845 72.0123 66.9452 66.9452 55.7829 64.547 55.7829 57.8555 53.7845 
62.2346 55.7829 62.2346 53.7845 60.0051 53.7845 55.7829 51.8578 66.9452 
62.2346 60.0051 50 64.547 60.0051 53.7845 44.8166 69.4326 62.2346 
57.8555 51.8578 55.7829 48.2088 66.9452 57.8555 51.8578 46.4818 60.0051 
51.8578 62.2346 53.7845 55.7829 48.2088 57.8555 51.8578 57.8555 48.2088 
69.4326 64.547 55.7829 50 53.7845 43.2111 64.547 57.8555 48.2088 
41.6631 64.547 57.8555 55.7829 50 64.547 62.2346 55.7829 50 
55.7829 50 62.2346 55.7829 48.2088 43.2111 50 44.8166 46.4818 
44.8166 50 46.4818 62.2346 55.7829 53.7845 44.8166 51.8578 46.4818 
51.8578 48.2088 53.7845 50 57.8555 48.2088 60.0051 53.7845 50 
46.4818 51.8578 48.2088 46.4818 43.2111 44.8166 40.1706 48.2088 44.8166 
48.2088 44.8166 55.7829 48.2088 55.7829 50 53.7845 48.2088 57.8555 
51.8578 51.8578 48.2088 53.7845 48.2088 51.8578 46.4818 50 44.8166 
62.2346 55.7829 50 46.4818 53.7845 48.2088 48.2088 44.8166 51.8578 
44.8166 46.4818 38.7315 48.2088 43.2111 46.4818 44.8166 50 44.8166 
43.2111 41.6631 46.4818 41.6631 44.8166 41.6631 86.4222 80.3411 83.3262 
74.6879 89.6332 72.0123 77.463 69.4326 74.6879 66.9452 72.0123 60.0051 
89.6332 74.6879 66.9452 64.547 77.463 69.4326 86.4222 77.463 83.3262 
74.6879 86.4222 77.463 80.3411 72.0123 74.6879 72.0123 86.4222 74.6879 
86.4222 77.463 83.3262 74.6879 80.3411 69.4326 80.3411 72.0123 83.3262 
77.463 72.0123 66.9452 72.0123 64.547 77.463 72.0123 69.4326 64.547 
80.3411 72.0123 69.4326 66.9452 77.463 69.4326 74.6879 69.4326 72.0123 
64.547 66.9452 62.2346 64.547 60.0051 72.0123 62.2346 74.6879 64.547 
80.3411 74.6879 74.6879 64.547 69.4326 62.2346 77.463 64.547 66.9452 
62.2346 77.463 69.4326 69.4326 64.547 64.547 57.8555 66.9452 60.0051 
69.4326 62.2346 69.4326 66.9452 64.547 57.8555 69.4326 64.547 74.6879 
69.4326 74.6879 66.9452 72.0123 69.4326 74.6879 62.2346 62.2346 60.0051 
72.0123 64.547 64.547 57.8555 66.9452 62.2346 69.4326 64.547 66.9452 
60.0051 74.6879 69.4326 72.0123 64.547 66.9452 62.2346 66.9452 64.547 
64.547 62.2346 77.463 64.547 64.547 57.8555 66.9452 60.0051 64.547 
60.0051 72.0123 64.547 64.547 60.0051 69.4326 66.9452 62.2346 55.7829 
62.2346 53.7845 64.547 60.0051 66.9452 62.2346 64.547 57.8555 62.2346 
57.8555 62.2346 60.0051 60.0051 55.7829 60.0051 55.7829 57.8555 51.8578 
69.4326 62.2346 69.4326 64.547 64.547 60.0051 64.547 57.8555 60.0051 
57.8555 60.0051 57.8555 60.0051 57.8555 66.9452 60.0051 60.0051 55.7829 
60.0051 57.8555 62.2346 60.0051 57.8555 51.8578 62.2346 55.7829 57.8555 
53.7845 57.8555 53.7845 72.0123 64.547 57.8555 55.7829 53.7845 51.8578 
62.2346 57.8555 53.7845 50 55.7829 53.7845 64.547 55.7829 60.0051 
57.8555 51.8578 50 62.2346 57.8555 60.0051 57.8555 60.0051 57.8555 
55.7829 51.8578 55.7829 51.8578 62.2346 60.0051 62.2346 57.8555 60.0051 
55.7829 48.2088 43.2111 53.7845 51.8578 44.8166 43.2111 53.7845 50 
60.0051 57.8555 57.8555 53.7845 60.0051 55.7829 60.0051 55.7829 44.8166 
41.6631 57.8555 53.7845 43.2111 41.6631 55.7829 51.8578 51.8578 50 
44.8166 41.6631 50 46.4818 48.2088 44.8166 55.7829 53.7845 46.4818 
44.8166 46.4818 44.8166 55.7829 53.7845 41.6631 40.1706 50 44.8166 
46.4818 43.2111 44.8166 41.6631 43.2111 38.7315 53.7845 50 46.4818 
44.8166 51.8578 50 50 46.4818 57.8555 51.8578 55.7829 51.8578 
51.8578 50 53.7845 50 48.2088 46.4818 50 46.4818 48.2088 
46.4818 43.2111 40.1706 92.9635 89.6332 80.3411 74.6879 74.6879 72.0123 
72.0123 66.9452 86.4222 83.3262 69.4326 66.9452 80.3411 77.463 83.3262 
77.463 77.463 69.4326 72.0123 66.9452 74.6879 64.547 80.3411 69.4326 
80.3411 74.6879 77.463 74.6879 77.463 74.6879 77.463 69.4326 83.3262 
80.3411 74.6879 72.0123 77.463 74.6879 80.3411 74.6879 83.3262 77.463 
74.6879 72.0123 72.0123 66.9452 80.3411 74.6879 77.463 74.6879 66.9452 
62.2346 77.463 74.6879 64.547 62.2346 74.6879 72.0123 66.9452 64.547 
74.6879 72.0123 72.0123 69.4326 66.9452 64.547 66.9452 62.2346 72.0123 
69.4326 77.463 72.0123 62.2346 57.8555 74.6879 69.4326 77.463 72.0123 
74.6879 72.0123 72.0123 66.9452 74.6879 69.4326 60.0051 57.8555 57.8555 
55.7829 66.9452 62.2346 72.0123 66.9452 69.4326 66.9452 69.4326 64.547 
69.4326 64.547 74.6879 72.0123 69.4326 64.547 66.9452 60.0051 66.9452 
62.2346 72.0123 69.4326 66.9452 62.2346 66.9452 64.547 62.2346 60.0051 
62.2346 60.0051 69.4326 66.9452 69.4326 64.547 69.4326 64.547 62.2346 
53.7845 64.547 62.2346 66.9452 64.547 60.0051 53.7845 60.0051 57.8555 
62.2346 60.0051 55.7829 50 62.2346 57.8555 57.8555 53.7845 55.7829 
53.7845 51.8578 50 60.0051 57.8555 64.547 60.0051 64.547 60.0051 
60.0051 57.8555 55.7829 53.7845 62.2346 60.0051 62.2346 60.0051 55.7829 
51.8578 57.8555 55.7829 57.8555 55.7829 69.4326 66.9452 60.0051 57.8555 
57.8555 53.7845 53.7845 51.8578 57.8555 51.8578 55.7829 53.7845 66.9452 
64.547 51.8578 50 66.9452 64.547 53.7845 50 57.8555 55.7829 
51.8578 48.2088 64.547 60.0051 50 48.2088 60.0051 57.8555 57.8555 
53.7845 55.7829 53.7845 53.7845 51.8578 60.0051 55.7829 51.8578 48.2088 
46.4818 44.8166 57.8555 53.7845 53.7845 51.8578 57.8555 55.7829 48.2088 
46.4818 55.7829 53.7845 53.7845 51.8578 51.8578 50 51.8578 48.2088 
50 48.2088 51.8578 48.2088 57.8555 55.7829 60.0051 57.8555 57.8555 
55.7829 48.2088 44.8166 53.7845 51.8578 50 46.4818 40.1706 38.7315 
48.2088 44.8166 46.4818 41.6631 48.2088 44.8166 44.8166 43.2111 43.2111 
41.6631 48.2088 44.8166 44.8166 43.2111 44.8166 43.2111 41.6631 40.1706 
40.1706 38.7315 48.2088 46.4818 48.2088 44.8166 43.2111 41.6631 41.6631 
38.7315 83.3262 80.3411 77.463 72.0123 69.4326 66.9452 64.547 62.2346 
69.4326 64.547 66.9452 64.547 62.2346 60.0051 74.6879 69.4326 69.4326 
64.547 66.9452 62.2346 80.3411 77.463 80.3411 77.463 77.463 74.6879 
66.9452 64.547 83.3262 80.3411 74.6879 72.0123 77.463 74.6879 74.6879 
72.0123 72.0123 69.4326 66.9452 64.547 69.4326 66.9452 77.463 74.6879 
72.0123 69.4326 69.4326 66.9452 72.0123 66.9452 69.4326 64.547 77.463 
74.6879 74.6879 72.0123 74.6879 72.0123 69.4326 66.9452 69.4326 66.9452 
74.6879 72.0123 64.547 62.2346 60.0051 57.8555 74.6879 69.4326 66.9452 
64.547 69.4326 64.547 72.0123 69.4326 66.9452 64.547 66.9452 64.547 
74.6879 72.0123 69.4326 66.9452 66.9452 64.547 60.0051 57.8555 62.2346 
60.0051 69.4326 66.9452 64.547 62.2346 60.0051 57.8555 66.9452 64.547 
66.9452 62.2346 69.4326 64.547 69.4326 66.9452 66.9452 64.547 64.547 
60.0051 72.0123 69.4326 66.9452 64.547 64.547 62.2346 66.9452 64.547 
62.2346 60.0051 64.547 62.2346 60.0051 57.8555 64.547 60.0051 69.4326 
66.9452 57.8555 55.7829 64.547 62.2346 62.2346 60.0051 57.8555 55.7829 
55.7829 53.7845 57.8555 55.7829 62.2346 60.0051 62.2346 60.0051 53.7845 
51.8578 55.7829 53.7845 62.2346 60.0051 57.8555 55.7829 62.2346 60.0051 
55.7829 50 60.0051 57.8555 55.7829 53.7845 60.0051 57.8555 64.547 
62.2346 53.7845 51.8578 57.8555 55.7829 55.7829 53.7845 53.7845 51.8578 
57.8555 55.7829 55.7829 53.7845 60.0051 57.8555 60.0051 55.7829 57.8555 
55.7829 50 48.2088 64.547 62.2346 55.7829 53.7845 60.0051 57.8555 
50 48.2088 62.2346 60.0051 46.4818 44.8166 51.8578 50 55.7829 
53.7845 50 48.2088 46.4818 44.8166 51.8578 50 51.8578 50 
46.4818 44.8166 57.8555 55.7829 53.7845 51.8578 50 48.2088 44.8166 
43.2111 55.7829 51.8578 53.7845 51.8578 57.8555 55.7829 43.2111 41.6631 
50 48.2088 48.2088 46.4818 43.2111 41.6631 50 48.2088 50 
48.2088 43.2111 41.6631 46.4818 44.8166 51.8578 50 41.6631 40.1706 
50 48.2088 53.7845 51.8578 46.4818 44.8166 51.8578 50 53.7845 
51.8578 46.4818 44.8166 46.4818 44.8166 46.4818 44.8166 53.7845 51.8578 
46.4818 44.8166 51.8578 50 50 48.2088 46.4818 44.8166 40.1706 
38.7315 86.4222 83.3262 80.3411 77.463 74.6879 72.0123 83.3262 80.3411 
77.463 74.6879 72.0123 69.4326 64.547 62.2346 72.0123 69.4326 83.3262 
80.3411 69.4326 66.9452 72.0123 66.9452 72.0123 69.4326 77.463 74.6879 
69.4326 66.9452 80.3411 77.463 72.0123 69.4326 77.463 74.6879 74.6879 
72.0123 77.463 74.6879 69.4326 66.9452 80.3411 77.463 74.6879 72.0123 
62.2346 60.0051 66.9452 64.547 64.547 62.2346 69.4326 66.9452 72.0123 
69.4326 66.9452 64.547 64.547 62.2346 64.547 62.2346 62.2346 60.0051 
62.2346 60.0051 66.9452 64.547 66.9452 64.547 64.547 62.2346 64.547 
62.2346 66.9452 64.547 80.3411 77.463 66.9452 64.547 74.6879 72.0123 
72.0123 69.4326 55.7829 53.7845 72.0123 69.4326 64.547 62.2346 72.0123 
69.4326 64.547 62.2346 66.9452 64.547 60.0051 57.8555 62.2346 60.0051 
62.2346 60.0051 69.4326 66.9452 66.9452 64.547 66.9452 64.547 62.2346 
60.0051 69.4326 66.9452 57.8555 55.7829 60.0051 55.7829 60.0051 57.8555 
53.7845 51.8578 62.2346 60.0051 66.9452 64.547 66.9452 64.547 62.2346 
60.0051 66.9452 64.547 60.0051 57.8555 55.7829 53.7845 55.7829 53.7845 
64.547 62.2346 57.8555 55.7829 64.547 62.2346 53.7845 51.8578 60.0051 
57.8555 57.8555 53.7845 60.0051 57.8555 55.7829 53.7845 55.7829 53.7845 
57.8555 55.7829 64.547 60.0051 51.8578 50 53.7845 51.8578 53.7845 
51.8578 62.2346 60.0051 
