# vtk DataFile Version 4.1
vtk output
ASCII
DATASET POLYDATA
POINTS 1300 float
16125 47875 54078.1 15093.8 45354.6 51500 15403.1 46110.7 52273.4 
19764.3 43750 46859.4 15186.6 45581.5 51732 12000 42736.3 44796.9 
17836.7 44370 48140.7 16898.4 42276.3 42476.6 12599.3 42705.1 44967.2 
11226.6 40697.5 40414.1 19200.3 43544.9 46929.6 23859.4 39672.4 41960.9 
12187.5 42102.8 43601.3 8132.81 37627.5 43507.8 11093.7 40822.7 41145.4 
7875 38078.1 37669.9 22461.6 40834.1 43451.5 27327.5 38078.1 45570.3 
17696 42719.1 43701.1 20250 40204.6 37062.5 18021.3 41831.8 40834.9 
15093.8 41230.7 36031.2 9011.02 37996.6 43720.4 6585.94 31632.8 44845.3 
8283.48 36087.4 44057.8 5296.88 33437.5 39671.6 8183.14 38050 37817.9 
5296.88 34841 34226.6 25624.1 38685.7 44190 30105.7 33953.1 42218.8 
27308.9 37015.8 42840.4 29015.6 35884.7 38351.6 19973.1 40715.3 37359.2 
22570.3 40715 31906.2 16028.6 41393 36606.3 16125 41230.7 30875 
15374.2 41279.3 36203.8 11151.3 40656.2 34742.2 6899.85 31969.3 44557.9 
5554.69 25445.3 44311.2 6261.3 33679.2 41238.5 4719.37 28539.1 39898.4 
20166.9 40357.8 37151.5 25453.7 38851.6 36289.1 5923.67 35041.7 34763.1 
4207.87 30085.9 31132.8 5881.18 27670.8 43960.2 4523.44 25031.8 41187.5 
29226.9 34325 42652.9 30820.3 28952.6 43765.6 28851.4 35772.9 39633.9 
32109.4 32258.8 36289.1 21811.4 41003.6 32351.8 22828.1 41745.2 27265.6 
28966.4 35851.1 38736.2 29531.2 37429.5 33710.9 16096.1 41279.3 32594.4 
12515.6 41224.5 30101.6 15965.9 41255.5 30993.9 15093.8 41230.7 25460.9 
11782.8 40535.7 34812 7518.19 38593.8 32421.9 5652.66 26113 44205.9 
5767.13 21578.1 48148.4 4619.65 30336.9 31282.2 4207.87 26734.4 28554.7 
30087.3 31423.9 43253.8 31652.5 28539.1 39382.8 5010.91 31748.3 32326.5 
4207.87 31375 26234.4 30875.7 33509.4 36846.2 31442.2 32406.2 31906.2 
5069.59 29462 39533.2 4207.87 25960.9 37062.5 30434.6 29254.3 43658.7 
29897.3 24929.7 44281.2 31739.3 32634 36456.2 31638.1 28023.4 34484.4 
22451.9 41599.4 27415 22828.1 42051.5 23140.6 5484.87 34901.2 34387.5 
5738.25 35757.8 30101.6 12977 41023.3 30485.9 8906.25 39681.7 28039.1 
29388.7 36877.6 34418.1 29602.4 36531.2 29070.3 15806 41382.7 26220.9 
16640.6 41745.2 21851.6 4331.42 27815.1 29372.9 4722.47 23125 30101.6 
4244.9 27058.6 28800.2 5446.41 25187.5 22367.2 4442.9 31158.4 26485.1 
4213.03 30601.6 22625 30962.5 29043.4 40737.7 30636.8 24929.7 39382.8 
31668.4 29406.6 35075.9 31078.1 29023.8 31132.8 22342.6 40801.6 32039.9 
27003.7 39882.8 30617.2 29768.4 25375.1 44154.2 28822.8 21578.1 44539.1 
4605.42 26497.3 26870.3 5958.94 21835.9 25718.8 22715.3 41915.9 24422.9 
25406.2 38128.7 20562.5 29298.1 36009.7 29749.6 29066.2 34984.4 25976.6 
25836.9 40094.8 30604.3 27658.5 39625 27781.2 31500.5 28241.8 34558.3 
30562.5 25335 33195.3 5487.14 25203.2 23366.5 7359.38 22773.3 20820.3 
24211.8 39519.3 21570.9 23601.6 38593.8 18114.3 29210 35620.1 28315.8 
30046.9 32406.2 27444 30622.5 25715.6 39387.7 29906.6 22609.4 36804.7 
15307.4 41276.2 25688.9 11742.2 40658.3 22882.8 23784.6 38871.5 19151.3 
21539.1 40191.2 17210.9 29106.5 22717.2 44423.6 27984.4 20735.6 48406.2 
16343.1 41619.6 22309.4 16125 41547.2 16695.3 4426.81 30643.6 23116.2 
5296.88 29828.1 18688.7 4885.2 23470.8 30229.3 5750.62 19000 31390.6 
30128.1 27469.9 43886.6 29091.9 26218.8 47632.8 5900.88 22461.3 26376 
7298.53 18742.2 26750 25000.9 38250.3 20916.9 26179.7 34726.6 19996.3 
28907.9 21919.9 44504.4 27726.6 18948.4 42992.2 6320.19 21345.6 26488.2 
7838.9 19773.4 23914.1 22545 41948.1 23464.1 21281.2 41884.5 20046.9 
7161.37 23406.4 21038.6 9555.94 22609.4 17468.8 30682.7 26223.4 33203.1 
29076.5 24414.1 29843.8 5750.21 35858.8 30390.3 6070.31 37097.4 26234.4 
29949.5 23475.8 38095.8 28014.3 19257.8 38093.8 15840.4 41356.9 18588.1 
13546.9 40006.6 16179.7 29809.7 22909.8 36926.8 29082.7 22093.8 33710.9 
23656.5 38677.1 18425.4 22570.3 36531.2 15355.7 6659.16 23945.5 21736.9 
7298.53 25703.1 17726.6 5921.19 19423.3 30954.3 7101.56 16679.7 30827.6 
28175.5 20077.6 43566.8 26953.1 17115.9 45828.1 7299.97 22963.3 20885.8 
9937.5 20374.7 20046.9 5128.78 30546.7 19851 6271.41 32921.9 15921.9 
9969.26 40040.2 28266.6 8648.44 39654.9 24945.3 5430.63 29992.7 18837.2 
6768.47 28796.9 16179.7 13134.4 40812.8 23467.9 12773.4 40216.9 20046.9 
8962.86 23090.4 17999.5 9937.5 24507.9 14375 28594.9 20523.2 38094.4 
26695.3 18429.7 34484.4 4438.05 31004 25474.4 4753.41 34210.9 22882.8 
29630.2 25262.9 30694.7 29015.6 25953.7 27523.4 6199.84 32351.8 16287.3 
6995.34 32921.9 13859.4 25590.8 35526.8 19928.6 24920.5 31632.8 17210.9 
27971 19490.9 38058 25921.9 17036.5 37835.9 6666.17 17553.5 31249.6 
7617.19 14494.5 33453.1 29070.1 24594.3 29880.7 27014 22609.4 27007.8 
6625.95 28867.1 16644.6 8330.81 26992.2 14375 6970.9 16941.8 30954.2 
8648.44 15906.2 28460.8 26934.6 18869.2 34556.7 25921.9 18204.9 31648.4 
7027.52 16391 32087 9421.88 13824.2 30875 28916.8 22066.1 33945.9 
27659.5 21062.5 30875 7410.22 28004.6 15600.5 8132.81 29267.1 12570.3 
22907.9 36605.3 16047.3 22886.9 32921.9 14375 6903.87 33011.1 14528.7 
8330.81 34984.4 12570.3 8782.4 39481 25134.1 7617.19 38593.8 21823.7 
26014.8 17288.9 38051.4 23912 15132.8 38351.6 7701.65 14698.9 33300.8 
9357.94 12296.9 35000 27030.5 17474.9 45217.6 25148.4 13968.5 45828.1 
8153.13 29337.8 12720 8824.78 30601.6 10507.8 27630.8 23204.9 27869.7 
26695.3 24788.4 24171.9 26549.8 18616.8 33451.6 24632.8 16421.9 33104.6 
7642.56 14555.8 33407.4 6426.09 14875 36804.7 24712.1 31917.7 17392.8 
23601.6 29312.5 15531 25997.3 18414.9 31846.4 24890.6 18675.2 28554.7 
8366.8 34786.1 12980.4 10090.1 36531.2 11796.9 25245.4 14533.6 45271.8 
23343.8 11979.2 44539.1 7751.35 38521 22360.5 6328.12 36363.2 19273.4 
23729.2 30015.9 15727.5 22371.3 29312.5 13343.8 13735.9 39970.9 16589.4 
11600.9 38335.9 14890.6 6821.27 14572.2 36176.2 6902.53 13328.1 38867.2 
6858.6 14000 37414.1 9421.88 11723.5 38093.8 24953.1 18339.3 29562.4 
22570.3 16927.2 27523.4 26957 24813.8 24809.3 26760.3 28023.4 21593.8 
23374.8 12262.7 44845.8 21281.2 10072.5 44796.9 7096.61 37528.4 20940.4 
8574.19 38078.1 17468.8 23639.8 29523.5 15590 22828.1 26218.8 15558.9 
27004.8 22624.2 27092.9 25406.2 21226.5 25460.9 26679.3 26097.7 23089.3 
25465 25960.9 20562.5 23136.6 27474.6 15570.7 21347.3 26218.8 13085.9 
22513.1 29465 13518.1 20765.6 29045.4 9992.19 8283.58 12554.8 38198.5 
9164.06 10669.6 40929.7 23259.9 17555.7 27876.1 21539.1 17886.2 24945.3 
22777.2 17115.7 27629.2 21023.4 14864.7 29585.9 29109.4 26057 28017.9 
28500 28023.4 24939.1 25817.5 26261.5 21158.1 24947.3 27765.6 18500 
21289.9 29171.3 11049.9 19794.2 26476.6 10250 22780.3 26414.4 15614.8 
21539.1 23759.2 15921.9 22075.9 18017.9 25447.9 22054.7 19464.1 22882.8 
21700.1 17925.7 25096.1 19103.2 16679.7 24171.9 20926.9 15052.3 29403.4 
19248.7 13328.1 30875 28791.7 27696.1 26053.6 29060 30601.6 25203.1 
20297.8 17252.9 24597 18960.9 18110 21593.8 25821.4 21793.9 25671.2 
24375 21785.4 22882.8 19398.7 13808.7 30323.8 16125 12450.5 30617.2 
26834.6 27746.5 22153.3 27493.5 30859.4 21851.6 24649.1 21975.2 23238.6 
23543.8 23125 20046.9 19293.7 13472.3 30709.7 18187.5 12245.3 33453.1 
18161.3 12499.9 32820.7 15867.2 11697.7 34226.6 21482 15671.2 28871.1 
17414.1 14277.9 27523.4 18147.1 12330.6 33404.8 18009.1 11781.2 35773.4 
21989.3 19358.2 22981.8 21796.9 20738.7 20304.7 21603.2 20411.3 20666.6 
20042.7 21062.5 17726.6 21585.4 24236.6 15766.8 19476.6 22048.4 15406.2 
15968.4 44144.9 49594.2 18187.5 44856.5 52273.4 17272.3 44419.5 50690.5 
19734.4 44327.5 50726.6 15644.5 44717.1 49959.6 15609.4 44641 46859.4 
19550 43672 46886.1 21023.4 43774.8 48921.9 15404 44415.9 47311.2 
14835.9 43750 44929.9 20581.4 43743.9 48311.2 22377.5 42718.8 48406.2 
15547.8 44573.5 46994.9 19734.4 42225.8 43765.6 21920.2 42912.4 48156.4 
23601.6 41539 46859.4 17137.7 42409.2 42843.9 14320.3 42274.3 42218.8 
23414.6 41588.2 46882 24375 40537.7 45828.1 19200.8 42276.1 43685.8 
20557.3 41171.9 41960.9 23216.4 40206.8 42646.6 22570.3 39988 40671.9 
15165.5 42314.7 42406.3 14320.3 41689.6 39898.4 22764.1 40053.7 41264.3 
24197.6 39109.4 39640.6 8468.48 37698.3 43435.7 7331.53 36789.1 42218.8 
23793.7 39793.9 42274.5 25732.1 38593.8 41703.1 7763.62 37134.6 42681.2 
7823.44 37820.3 40156.2 26816.5 38260.4 45156.3 28242.2 36582.8 44539.1 
7791.16 37450 41519.8 6585.94 36067.2 39898.4 25453.7 38652.7 41669.4 
26953.1 37432.6 40929.7 7619.35 33765.2 44629 7789.41 32148.4 46601.6 
5634.4 33645.8 40035.2 5296.88 34321.3 38351.6 7614.61 32232.7 46281.1 
7359.38 30601.6 47711.2 20363.8 40793.3 35496.4 19218.8 40716.1 33710.9 
7057.01 32550 44313.1 5812.5 30601.6 42591 26503.3 37798.6 41151.6 
27006.8 37304.7 38867.2 22397.4 39863.3 36211.3 23601.6 39882.8 34532.8 
29863.9 33896.5 42341.4 31078.1 32406.2 41760.9 19419.6 40809 33940.4 
18445.3 41230.7 31906.2 30616.7 32972.5 41981.5 31151.3 32664.1 39382.8 
25284.4 38836.2 36270.4 27468.8 37929.6 36289.1 5398.15 33500 39780.7 
4726.59 32148.4 38351.6 18744.5 41116.8 32202.8 18703.1 41230.7 30101.6 
14302 41752.8 40051.3 13289.1 41200.8 37578.1 12925.8 40748.6 35542 
10968.8 40197.3 36546.9 4884.58 32185.1 38592.4 4523.44 30734.6 37578.1 
30921.2 32514.6 41720.9 31638.1 31117.2 40671.9 29485.2 36289.4 35866.5 
31133.8 35242.2 33968.8 24435.4 39240.8 35963.6 26437.5 39157.8 34226.6 
18934.2 41254.8 30631.4 20250 41687.5 28633.1 4774.03 32159.4 38423.8 
4781.25 33257 36546.9 4579.54 30772.2 37767.3 4207.87 28796.9 36804.7 
12400.1 40650.7 35206.2 12515.6 41031.6 32679.7 4890.05 25513.5 42017.4 
4523.44 23382.8 41768.1 9121.37 39507.7 32573.6 8390.62 39429.1 31132.8 
31530.4 28747.4 39532 32111.4 29054.7 37835.9 24382.3 40343 31476.1 
26179.7 39696.2 32421.9 12481 40917.4 33437.6 10968.8 40699.6 32164.1 
15853.9 41344.5 27652.8 18445.3 41745.2 25976.6 4608.83 31034.3 28638.9 
4207.87 28796.9 27265.6 29365.6 36811.3 32733.8 29398.2 38078.1 31390.6 
4304.09 29117.3 27234.3 4207.87 28023.4 25976.6 31203 33045 33707.4 
31150.3 34210.9 32421.9 18328.7 41777.3 26109.5 20250 42203.1 25014.4 
[...]
CELL_DATA 1299
SCALARS radius float
LOOKUP_TABLE default
83.3262 100 83.3262 96.4176 86.4222 96.4176 83.3262 92.9635 80.3411 
92.9635 80.3411 89.6332 77.463 86.4222 80.3411 89.6332 77.463 92.9635 
80.3411 89.6332 80.3411 83.3262 64.547 80.3411 69.4326 83.3262 72.0123 
86.4222 69.4326 83.3262 74.6879 86.4222 74.6879 86.4222 77.463 83.3262 
69.4326 69.4326 60.0051 77.463 60.0051 83.3262 69.4326 80.3411 69.4326 
64.547 55.7829 80.3411 69.4326 80.3411 69.4326 80.3411 72.0123 77.463 
66.9452 83.3262 72.0123 80.3411 69.4326 74.6879 64.547 62.2346 55.7829 
74.6879 66.9452 77.463 66.9452 77.463 66.9452 77.463 69.4326 66.9452 
62.2346 72.0123 64.547 74.6879 66.9452 77.463 66.9452 74.6879 66.9452 
77.463 66.9452 69.4326 60.0051 74.6879 64.547 72.0123 64.547 69.4326 
57.8555 72.0123 64.547 74.6879 69.4326 72.0123 66.9452 77.463 64.547 
66.9452 57.8555 66.9452 55.7829 74.6879 64.547 64.547 57.8555 72.0123 
62.2346 69.4326 62.2346 62.2346 53.7845 72.0123 64.547 62.2346 53.7845 
72.0123 60.0051 72.0123 60.0051 69.4326 62.2346 62.2346 55.7829 69.4326 
60.0051 66.9452 57.8555 69.4326 64.547 69.4326 62.2346 60.0051 53.7845 
69.4326 62.2346 60.0051 51.8578 57.8555 51.8578 69.4326 60.0051 57.8555 
50 66.9452 60.0051 69.4326 62.2346 69.4326 60.0051 64.547 55.7829 
64.547 55.7829 66.9452 55.7829 60.0051 51.8578 66.9452 60.0051 57.8555 
51.8578 55.7829 50 62.2346 57.8555 74.6879 64.547 60.0051 51.8578 
66.9452 57.8555 53.7845 46.4818 66.9452 62.2346 69.4326 64.547 64.547 
57.8555 60.0051 53.7845 66.9452 60.0051 62.2346 57.8555 64.547 53.7845 
62.2346 53.7845 55.7829 48.2088 62.2346 55.7829 64.547 55.7829 60.0051 
51.8578 57.8555 51.8578 53.7845 50 60.0051 50 57.8555 51.8578 
66.9452 60.0051 60.0051 53.7845 57.8555 48.2088 55.7829 48.2088 51.8578 
50 60.0051 53.7845 62.2346 60.0051 55.7829 51.8578 62.2346 55.7829 
60.0051 55.7829 55.7829 51.8578 51.8578 46.4818 62.2346 55.7829 60.0051 
51.8578 60.0051 55.7829 53.7845 48.2088 51.8578 44.8166 57.8555 50 
57.8555 51.8578 50 44.8166 60.0051 53.7845 57.8555 51.8578 55.7829 
50 55.7829 48.2088 55.7829 46.4818 53.7845 50 50 46.4818 
55.7829 50 53.7845 48.2088 60.0051 51.8578 51.8578 48.2088 51.8578 
48.2088 53.7845 48.2088 53.7845 48.2088 51.8578 48.2088 50 44.8166 
55.7829 51.8578 50 41.6631 51.8578 48.2088 48.2088 43.2111 53.7845 
50 50 44.8166 46.4818 41.6631 44.8166 41.6631 51.8578 48.2088 
43.2111 41.6631 50 44.8166 48.2088 41.6631 50 48.2088 86.4222 
77.463 83.3262 74.6879 89.6332 77.463 89.6332 80.3411 83.3262 72.0123 
86.4222 80.3411 80.3411 72.0123 83.3262 74.6879 89.6332 80.3411 77.463 
69.4326 74.6879 66.9452 86.4222 77.463 86.4222 74.6879 83.3262 74.6879 
80.3411 72.0123 83.3262 77.463 77.463 69.4326 80.3411 72.0123 74.6879 
66.9452 80.3411 74.6879 74.6879 69.4326 74.6879 66.9452 72.0123 64.547 
83.3262 77.463 72.0123 69.4326 77.463 69.4326 77.463 72.0123 74.6879 
64.547 80.3411 72.0123 72.0123 66.9452 72.0123 64.547 72.0123 64.547 
77.463 69.4326 80.3411 72.0123 80.3411 77.463 69.4326 64.547 69.4326 
62.2346 72.0123 64.547 74.6879 69.4326 74.6879 69.4326 66.9452 62.2346 
66.9452 64.547 77.463 66.9452 57.8555 53.7845 72.0123 66.9452 72.0123 
64.547 74.6879 69.4326 72.0123 69.4326 77.463 69.4326 74.6879 66.9452 
66.9452 60.0051 69.4326 64.547 72.0123 66.9452 72.0123 62.2346 62.2346 
57.8555 74.6879 69.4326 72.0123 64.547 66.9452 60.0051 62.2346 57.8555 
69.4326 64.547 66.9452 62.2346 69.4326 62.2346 72.0123 66.9452 66.9452 
62.2346 66.9452 62.2346 66.9452 60.0051 66.9452 60.0051 66.9452 60.0051 
69.4326 64.547 55.7829 50 66.9452 62.2346 60.0051 53.7845 60.0051 
55.7829 60.0051 57.8555 66.9452 64.547 60.0051 55.7829 53.7845 51.8578 
64.547 62.2346 57.8555 53.7845 62.2346 57.8555 69.4326 64.547 55.7829 
50 55.7829 53.7845 55.7829 48.2088 53.7845 50 57.8555 50 
51.8578 50 55.7829 50 64.547 60.0051 53.7845 51.8578 60.0051 
53.7845 53.7845 50 62.2346 60.0051 55.7829 53.7845 53.7845 51.8578 
62.2346 57.8555 53.7845 51.8578 66.9452 62.2346 64.547 62.2346 72.0123 
69.4326 64.547 57.8555 55.7829 51.8578 62.2346 57.8555 51.8578 50 
66.9452 64.547 55.7829 53.7845 53.7845 51.8578 57.8555 51.8578 53.7845 
50 57.8555 55.7829 53.7845 50 51.8578 50 55.7829 51.8578 
53.7845 50 62.2346 60.0051 55.7829 53.7845 57.8555 53.7845 51.8578 
48.2088 50 46.4818 50 48.2088 53.7845 51.8578 53.7845 51.8578 
57.8555 53.7845 55.7829 53.7845 48.2088 46.4818 53.7845 51.8578 64.547 
60.0051 50 46.4818 53.7845 50 55.7829 48.2088 51.8578 50 
51.8578 50 50 44.8166 48.2088 43.2111 51.8578 48.2088 57.8555 
55.7829 51.8578 48.2088 53.7845 51.8578 46.4818 44.8166 43.2111 38.7315 
46.4818 44.8166 51.8578 50 46.4818 44.8166 50 46.4818 46.4818 
44.8166 44.8166 43.2111 92.9635 86.4222 77.463 74.6879 77.463 72.0123 
74.6879 69.4326 74.6879 69.4326 72.0123 66.9452 83.3262 77.463 86.4222 
77.463 83.3262 80.3411 72.0123 66.9452 74.6879 69.4326 69.4326 62.2346 
77.463 74.6879 80.3411 74.6879 80.3411 77.463 66.9452 64.547 72.0123 
69.4326 69.4326 66.9452 77.463 72.0123 74.6879 69.4326 77.463 74.6879 
74.6879 72.0123 66.9452 62.2346 72.0123 69.4326 69.4326 66.9452 72.0123 
69.4326 64.547 60.0051 64.547 60.0051 74.6879 69.4326 69.4326 66.9452 
80.3411 74.6879 62.2346 60.0051 66.9452 62.2346 72.0123 66.9452 72.0123 
69.4326 77.463 66.9452 83.3262 77.463 74.6879 69.4326 66.9452 64.547 
72.0123 66.9452 72.0123 69.4326 72.0123 64.547 69.4326 64.547 69.4326 
66.9452 57.8555 53.7845 66.9452 62.2346 69.4326 64.547 69.4326 64.547 
72.0123 69.4326 66.9452 64.547 74.6879 66.9452 72.0123 69.4326 69.4326 
66.9452 64.547 57.8555 64.547 60.0051 60.0051 57.8555 62.2346 60.0051 
64.547 60.0051 66.9452 64.547 62.2346 53.7845 62.2346 57.8555 60.0051 
57.8555 60.0051 55.7829 57.8555 55.7829 74.6879 69.4326 64.547 60.0051 
64.547 60.0051 69.4326 64.547 64.547 60.0051 66.9452 64.547 57.8555 
51.8578 57.8555 55.7829 60.0051 57.8555 62.2346 60.0051 55.7829 53.7845 
57.8555 55.7829 69.4326 64.547 66.9452 64.547 57.8555 53.7845 53.7845 
50 55.7829 51.8578 53.7845 48.2088 64.547 62.2346 51.8578 50 
60.0051 55.7829 64.547 62.2346 64.547 60.0051 51.8578 48.2088 64.547 
62.2346 51.8578 50 62.2346 57.8555 57.8555 55.7829 51.8578 50 
60.0051 55.7829 62.2346 60.0051 62.2346 60.0051 50 46.4818 60.0051 
57.8555 53.7845 50 55.7829 53.7845 60.0051 55.7829 57.8555 55.7829 
64.547 57.8555 53.7845 50 53.7845 50 51.8578 50 48.2088 
46.4818 51.8578 48.2088 51.8578 50 53.7845 51.8578 50 48.2088 
55.7829 51.8578 48.2088 46.4818 57.8555 53.7845 57.8555 55.7829 55.7829 
50 53.7845 51.8578 53.7845 50 57.8555 55.7829 51.8578 50 
55.7829 53.7845 46.4818 44.8166 50 46.4818 48.2088 46.4818 48.2088 
46.4818 51.8578 50 50 48.2088 50 48.2088 50 46.4818 
46.4818 44.8166 50 46.4818 44.8166 43.2111 44.8166 41.6631 43.2111 
40.1706 48.2088 44.8166 46.4818 44.8166 48.2088 46.4818 41.6631 40.1706 
80.3411 77.463 86.4222 83.3262 80.3411 77.463 86.4222 77.463 83.3262 
80.3411 72.0123 66.9452 89.6332 86.4222 80.3411 77.463 86.4222 83.3262 
80.3411 74.6879 72.0123 69.4326 64.547 60.0051 83.3262 80.3411 77.463 
74.6879 77.463 72.0123 66.9452 62.2346 74.6879 69.4326 80.3411 74.6879 
72.0123 69.4326 64.547 60.0051 72.0123 69.4326 66.9452 64.547 62.2346 
60.0051 72.0123 69.4326 69.4326 64.547 74.6879 72.0123 69.4326 66.9452 
60.0051 55.7829 74.6879 72.0123 72.0123 69.4326 60.0051 57.8555 62.2346 
60.0051 77.463 74.6879 64.547 62.2346 72.0123 69.4326 69.4326 66.9452 
72.0123 69.4326 74.6879 69.4326 69.4326 66.9452 72.0123 69.4326 69.4326 
66.9452 66.9452 62.2346 66.9452 64.547 55.7829 53.7845 64.547 62.2346 
69.4326 66.9452 72.0123 69.4326 66.9452 62.2346 62.2346 60.0051 64.547 
57.8555 72.0123 69.4326 72.0123 69.4326 60.0051 55.7829 60.0051 57.8555 
66.9452 64.547 72.0123 66.9452 69.4326 64.547 64.547 62.2346 64.547 
62.2346 57.8555 53.7845 64.547 62.2346 62.2346 57.8555 51.8578 50 
66.9452 62.2346 62.2346 60.0051 64.547 62.2346 57.8555 55.7829 66.9452 
62.2346 62.2346 55.7829 53.7845 51.8578 64.547 62.2346 62.2346 60.0051 
64.547 62.2346 60.0051 57.8555 50 48.2088 53.7845 51.8578 55.7829 
53.7845 57.8555 55.7829 57.8555 55.7829 53.7845 51.8578 51.8578 50 
51.8578 50 64.547 62.2346 62.2346 60.0051 51.8578 50 55.7829 
53.7845 50 48.2088 57.8555 55.7829 66.9452 64.547 48.2088 46.4818 
60.0051 57.8555 55.7829 53.7845 62.2346 60.0051 55.7829 53.7845 57.8555 
55.7829 62.2346 60.0051 48.2088 46.4818 62.2346 60.0051 60.0051 57.8555 
51.8578 50 57.8555 55.7829 66.9452 64.547 64.547 62.2346 53.7845 
51.8578 50 48.2088 51.8578 50 53.7845 51.8578 53.7845 51.8578 
51.8578 50 48.2088 46.4818 55.7829 53.7845 57.8555 55.7829 51.8578 
50 46.4818 44.8166 48.2088 46.4818 44.8166 43.2111 51.8578 50 
53.7845 51.8578 48.2088 46.4818 50 48.2088 46.4818 44.8166 48.2088 
46.4818 48.2088 46.4818 48.2088 44.8166 41.6631 40.1706 46.4818 44.8166 
43.2111 41.6631 46.4818 44.8166 40.1706 38.7315 43.2111 41.6631 80.3411 
77.463 89.6332 86.4222 83.3262 80.3411 77.463 74.6879 80.3411 77.463 
69.4326 66.9452 69.4326 66.9452 69.4326 66.9452 72.0123 69.4326 80.3411 
77.463 77.463 74.6879 83.3262 80.3411 62.2346 60.0051 74.6879 72.0123 
72.0123 69.4326 77.463 74.6879 74.6879 72.0123 62.2346 60.0051 74.6879 
72.0123 66.9452 64.547 77.463 72.0123 74.6879 72.0123 77.463 74.6879 
64.547 62.2346 69.4326 66.9452 74.6879 72.0123 62.2346 60.0051 66.9452 
64.547 57.8555 55.7829 74.6879 72.0123 62.2346 60.0051 64.547 62.2346 
72.0123 69.4326 69.4326 66.9452 69.4326 66.9452 64.547 62.2346 69.4326 
66.9452 80.3411 77.463 69.4326 66.9452 55.7829 53.7845 72.0123 69.4326 
74.6879 72.0123 72.0123 69.4326 66.9452 64.547 64.547 62.2346 69.4326 
66.9452 64.547 62.2346 69.4326 66.9452 62.2346 60.0051 64.547 62.2346 
57.8555 55.7829 60.0051 57.8555 62.2346 60.0051 66.9452 64.547 64.547 
62.2346 69.4326 66.9452 66.9452 62.2346 64.547 62.2346 66.9452 64.547 
55.7829 53.7845 60.0051 57.8555 55.7829 53.7845 57.8555 55.7829 64.547 
62.2346 62.2346 60.0051 64.547 60.0051 62.2346 60.0051 64.547 62.2346 
62.2346 60.0051 55.7829 53.7845 66.9452 64.547 55.7829 53.7845 51.8578 
50 57.8555 55.7829 53.7845 51.8578 50 48.2088 62.2346 60.0051 
51.8578 50 57.8555 55.7829 51.8578 50 64.547 62.2346 50 
48.2088 60.0051 57.8555 
