# vtk DataFile Version 4.1
vtk output
ASCII
DATASET POLYDATA
POINTS 1300 float
16125 47875 54078.1 15093.8 45358.8 52015.6 15403.1 46113.6 52634.4 
19734.4 43760.3 46859.4 16702.5 45407.6 50901.9 13289.1 42976.6 44233.8 
18440.5 44082.8 47624.6 18072 41945.3 42218.8 13412.7 42724.3 44563.3 
11226.6 40697.5 40414.1 19346.2 43857 47088.9 25782.7 39625 46085.9 
22307 41910.4 46627.6 23601.6 39185.7 40156.2 12407.1 41792 42654.7 
7552.22 36531.2 43507.8 17898.9 42421.6 42956.4 16125 41225.5 37062.5 
11205.6 40708.5 41087.6 6776.72 36789.1 37062.5 25231.9 39772.8 45943.4 
28551.6 36273.4 44023.4 22963.3 40063.8 41217.7 21539.1 40203.5 35257.8 
8907.38 36872.9 43740.2 6843.75 31739 45312.5 27792.4 37090.8 43964.3 
29531.2 35362.8 39898.4 8123.22 34922 44337.7 5554.69 31937 40929.7 
7266.25 36791.3 37234.4 4728.66 33437.5 34226.6 16692.7 41609.7 37360.4 
16125 41230.7 31390.6 16295.3 41340.8 37151.9 12000 40715 35000 
23410.1 39449.2 40474.7 27001.6 37820.3 36804.7 7147.15 32088.5 44899.1 
5812.5 26277.5 44796.9 28323.8 36518.6 44005.7 31078.1 30859.4 43576.9 
22104.1 40309.4 36109 22828.1 41229.6 29843.8 6060.51 32159 41597.2 
4214.06 27765.6 39125 5340.91 34054.3 34425.1 4207.87 31375 29843.8 
29572.8 35304.5 40044.6 31667 33179.7 35773.4 16675.3 41404.6 32533.3 
18960.9 41742.2 28039.1 30251.8 32557.2 43705.5 31652.5 30859.4 39640.6 
16290.1 41282.8 31733.4 12257.8 41171.9 31139 26560.6 38235.8 37040.6 
29531.2 37442.9 33453.1 17909.5 41586.9 30106.4 15093.8 41230.7 25718.8 
5949.56 27405.1 44355.3 4217.16 23125 41445.3 12618.3 40596.6 35292.3 
8132.81 38662.8 32937.5 5853.65 26615.8 44664.4 6070.31 22093.8 48289.7 
4547.77 32178.8 31218.2 4207.87 26734.4 31132.8 30830.2 31368.7 43615.5 
30098.4 26734.4 45312.5 31099.6 33212 36746.2 31652.5 29312.5 34484.4 
22798.7 41153.4 29975.9 23343.8 41746.3 24945.3 31496.7 33189.4 36065.2 
31131.8 32921.9 30875 8559.65 38480.2 32997.3 5812.5 36352.8 31132.8 
4426.09 28786.7 30555.9 4722.47 24671.9 26750 4309.87 31616.1 30256.1 
4207.87 30343.8 24687.5 28707.7 37709.9 33844.3 29377.6 37820.3 29328.1 
13739 41127.7 30816.2 10453.1 40516 27007.8 16034.5 41398.9 26362 
16382.8 41745.2 21851.6 4716.8 25855.1 27236.2 5253.56 25187.5 22882.8 
31232.3 31368.7 40860.1 30820.3 25140.1 39640.6 30049.6 27206.7 44697.3 
29087.8 23125 45054.7 28962.2 37751.8 32128.1 26821.1 40140.6 30101.6 
27552.9 39311.7 30305.5 26695.3 40192.2 26492.2 23485.3 41223.6 25834.3 
25406.2 39156.8 21593.8 31379.9 30677.3 34770.7 31087.4 29312.5 30875 
4377.62 30360.4 25013.3 4726.59 29312.5 21078.1 4720.72 25026.8 26895.9 
5225.72 21578.1 29585.9 24676.3 39942.2 23205.2 22476.5 40656.2 19015.6 
29253 37799.8 30168.1 29546.7 34468.8 26750 4721.95 24778.4 26793.8 
6328.12 21312.1 24945.3 15140.4 41244.2 25794.2 12000 40714 23914.1 
5453.01 25079 23589 7713.09 23125 19531.2 7735.47 37842 32438 
7307.81 38335.9 28812.5 29267.4 23793.9 44633.3 28515.5 20031.2 42734.4 
16108.3 41571.5 22519.5 15093.8 41171.9 17923.5 25079.7 39163.1 21997.9 
25315.5 36789.1 19531.2 30519 26121.7 39381.2 29273.4 21527.6 37320.3 
29141.7 23325.7 44928.3 27984.4 20735.6 48406.2 5846.33 22352 25499.8 
6585.94 19515.6 27381.1 31175.2 29721.9 32043.7 29789.1 25304 30875 
5256.45 21815.5 29158.2 5912.53 18484.4 31132.8 29233.3 35706.8 27513.2 
28042.1 34984.4 23656.2 4820.44 29198.4 21917.4 6070.31 26476.6 19483.8 
4754.75 29278.3 21329.9 5243.25 31632.8 18500 31113.7 29435.3 31225.6 
29604.5 30085.9 27007.8 29855.5 23690.6 37845.5 29605.5 22867.2 34742.2 
25244.7 37501.3 20271.2 22510.5 37562.5 15921.9 29680.5 23114.2 35673.2 
28500 20490.2 35000 7233.77 38022.1 29394.4 5953.78 37046.9 25976.6 
28801.2 21461.1 43455.9 27328.5 17968.8 45828.1 6350.91 21529.7 25236.4 
8521.59 18484.4 24687.5 27950.9 35085.6 23845.6 26695.3 34726.6 21026.6 
6334.93 21377.4 25032.6 8132.81 20804.7 22065 29780.7 26107.6 30671.5 
28175.2 23125 28812.5 7919.34 23479.8 19949.8 10195.3 22248.4 16953.1 
26862.1 34570.8 21434 25465 32921.9 18500 6103.52 27117.7 19626.2 
7617.19 25655.7 17210.9 24312.5 37093.2 18510.2 23859.4 34468.8 16080.7 
15403.8 41213.7 18523.3 15351.6 40700.6 13343.8 5718.55 27741.9 20313.5 
6787.03 28796.9 15921.9 16300.5 41693.1 22051.9 19476.6 42260.9 20304.7 
6127.44 18797.8 30776.1 7617.19 14845.1 32679.7 5284.5 31249.7 18830.9 
6479.72 33437.5 15406.2 13026.9 40821.5 24102.9 11484.4 40156.1 20562.5 
29198.9 21978.1 37654.4 26953.1 18101.8 38093.8 7014.01 37918.2 27740.4 
8132.81 39160.9 24171.9 7526.13 25948.8 17429.9 9885.94 24929.7 14117.2 
23386.2 41589.5 25212 21539.1 42260.9 22625 28732.7 21289.6 34874.7 
27210.9 19640.4 32421.9 6225 37063.1 26124.7 5240.16 34984.4 22625 
27529.2 18505.5 45115.4 25921.9 15067.8 45312.5 6657.2 19776.1 27073.6 
8521.59 15906.2 28812.5 28401.5 23894.2 28946.9 26695.3 22867.2 26186.9 
6674.42 29049 16326.2 7300.59 30601.6 13601.6 15186.8 41184.5 18103.5 
12515.6 39682.7 17468.8 6576.86 33026.2 15635.9 8192.62 34468.8 12312.5 
23772 34996.9 16353.5 22361 33179.7 13343.8 26934.2 18489.5 38060.5 
24960.8 16164.1 38351.6 6987.51 16187.1 32410.5 6843.75 14549.1 35515.6 
25696 33006.2 19039.5 24420.4 30343.8 16695.3 6909.85 15302.6 34087.2 
9164.06 12730 34742.2 7794.66 38733.6 24738.3 7875 38505.1 21335.9 
27540.5 19971.2 33519.6 24890.6 16937.5 32729.2 8683.91 16158 28633.1 
10195.3 13833.4 29585.9 27126.3 19696 32548.6 25406.2 18832.9 29328.1 
7112.7 30135.8 14418.9 8845.41 28796.9 11539.1 8073.21 34440.2 13159.5 
9612.66 36015.6 11539.1 25218 16402.9 38547.2 23624.2 14359.4 39382.8 
26031 15604.3 45151 23601.6 12270.1 44539.1 27027.2 23252.8 26541.7 
25775.4 23640.6 23398.4 24370.8 30477.4 16752.6 23149.9 28539.1 14890.6 
25399.2 17720.5 32574.7 23412.8 16679.7 30101.6 7623.79 38272.6 22274.1 
6281.72 36273.4 19531.2 22738.6 33273.3 14048.1 22337.2 30343.8 12570.3 
26451.4 23431.2 25095.8 27014 26218.8 23398.4 7052.68 14579 35262.4 
8132.81 12448.5 38093.8 13317 40133.3 17659.2 11742.2 38095.7 14117.2 
7113.83 37512.9 21231.8 8132.81 38087.4 18242.2 23740.4 17068.2 30171.1 
22312.5 16877.7 27523.4 6508.9 33314.1 15475.1 6843.75 35808.3 16695.3 
26628.1 25351.4 23586.4 25664.1 26992.2 20497.5 26794.9 22982.9 26293.4 
24926.7 20289.1 25976.6 7808.79 13087.6 37244.3 6328.12 12812.5 40615.2 
23512.7 12664.8 44662.7 20507.8 9869.31 44281.2 26889.4 26137.3 23422.1 
27529.6 28796.9 22882.8 23711.5 29430.7 15747.2 23343.8 25703.1 16902.6 
8075.79 12528.3 38057.6 8906.25 10690.2 40929.7 23110.9 28596.8 15002.6 
20825.4 25703.1 12570.3 8081.04 37756.6 18477 9112.5 37562.5 15664.1 
22776.2 17162.1 28017 22054.7 18432.8 24429.7 22225.6 30846 12665.8 
20765.6 28281.2 10402.6 23511.1 16796.2 30122.4 21023.4 14829.6 29843.8 
23028.3 26364.7 16330.5 21796.9 23805.6 16179.7 20764.4 28345.3 11067.7 
19476.6 26174.4 9992.19 22451.6 16963 27671.5 20250 15906.2 26543.8 
22271.1 18051.6 25505.9 19218.8 16920 23656.2 30057.2 29890.8 28273.2 
28568.1 26992.2 26234.4 22119.6 18318.4 24752.5 22828.1 20496.3 22109.4 
21370.3 15114.4 30151.9 18703.1 13070.3 31507.2 20214.9 17483.4 23978.8 
18703.1 18115.2 21335.9 19311.8 13741.3 30836 16382.8 12753.7 30101.6 
27379.9 28595.5 22969 27726.6 31117.2 22574.5 25743.8 23511.5 23559.4 
23859.4 23241.5 20304.7 18712.2 13178.1 31454.9 16898.4 11779.2 33195.3 
20423.4 14482.7 30466.6 17671.9 13992.2 28039.1 26232.4 33725.9 20141 
26458.1 30859.4 20046.9 17442.6 12198.9 32673.2 17929.7 11751.3 35773.4 
22363.6 19718.5 22745.7 21281.2 20385 20046.9 21338.8 20433.6 20224.7 
20250 21320.3 17597.7 19075.2 18138.2 21688.6 18445.3 19498.1 18757.8 
15896.9 45845.4 51976 18445.3 45109.2 52531.2 17680.8 45330.1 52364.7 
19476.6 44340.9 50726.6 19064.2 44636.4 50745.4 20056.1 44265.6 48921.9 
19441.1 44495.5 50052.5 16382.8 43824.2 45570.3 19871.6 44334.6 49261.1 
21862.9 42976.6 48664.1 17116.8 43748 46122.5 16382.8 42976.6 43700.7 
19617.9 43789.3 46928.3 19992.2 42106.2 43765.6 16184.6 43152.1 44133 
14835.9 42721.8 42476.6 20205.3 42248.5 44163.7 21074 41171.9 42476.6 
15005.5 42604.3 42633.8 13514.9 41687.5 40671.9 10059.9 38816.9 43147.2 
8390.62 38460.7 42218.8 20654.6 41486.5 42850.5 20250 40727.4 40929.7 
20948.2 41266.2 42588.8 24404.9 39367.2 41960.9 14340.8 42017.8 41262.9 
14835.9 41230.7 38867.2 20262.8 40922.4 41123.5 19561.1 40656.2 38609.4 
8803.64 38387.4 42327.1 7167.56 37046.9 40671.9 24147.9 39395.5 41818.1 
26179.7 38123.5 41187.5 7958.74 36633.7 43577.5 6775.69 35500 41960.9 
7397.33 37152 40649 6585.94 36273.4 39171.4 25969.3 38170.1 41529.2 
27468.8 37113.9 41445.3 7632.65 33345.2 44859.9 7617.19 32361.9 46343.8 
5706.38 32003.6 41130 5296.88 33726.2 39382.8 22755.4 40044.2 38403.1 
24117.2 39169.2 36804.7 7551.19 32334.5 46132.9 7359.38 30859.4 47710.2 
29543.7 35345.3 39942.3 28242.2 36582.8 38867.2 21708.6 40235.3 35513.2 
19218.8 40715 34226.6 14695.8 41064.9 35983.2 14062.5 41230.7 33453.1 
26116.6 38137.5 41290 26695.3 37614.1 39382.8 19965.7 40571.1 34612.5 
19992.2 41171.9 32274.4 5445.37 30357.7 40980.6 5227.78 27765.6 41960.9 
30875.1 32002.1 41685.3 31131.8 32921.9 39640.6 30275.1 34341.9 38527.3 
30304.7 35375.2 36546.9 23639.9 39619.3 37058.9 24890.6 39697.2 33710.9 
5518.08 32796 40326.3 4726.59 32148.4 38351.6 24744.5 39880.3 34032.2 
25406.2 40187 32164.1 15524.8 41236.3 31458.3 15093.8 41230.7 29070.3 
13114.5 40704.6 35709.7 10968.8 40197.3 36546.9 4986.78 25683.2 42224.4 
4523.44 25445.3 40736.8 4983.27 32122.4 39006.6 4581.19 30343.8 38093.8 
31615.9 33182.6 35861 31189.5 34984.4 33968.8 24800 39810.7 33910.1 
26953.1 39109.4 33999.7 14993.6 41232.2 29570.7 13546.9 41230.7 28039.1 
22807.8 41255.3 28442.1 21539.1 41745.2 27007.8 18645.5 41695.5 28659.3 
20507.8 41687.5 28633.1 6923.57 36789.7 37114.1 5765.06 35500 37835.9 
9667.93 39190.8 33392 8648.44 39474.4 31390.6 4606.35 28522.9 39141.3 
4207.87 27507.8 37062.5 31499.7 30785.5 39912.4 31851.6 28767 37835.9 
31158 34907.1 33976.1 30820.3 36044.5 32679.7 18866.3 41728.1 28225.1 
18445.3 41745.2 26234.4 4297.6 30525.4 28160.5 4207.87 28796.9 27265.6 
[...]
CELL_DATA 1299
SCALARS radius float
LOOKUP_TABLE default
92.9635 100 80.3411 92.9635 86.4222 89.6332 77.463 89.6332 77.463 
86.4222 77.463 83.3262 72.0123 86.4222 74.6879 86.4222 72.0123 83.3262 
72.0123 80.3411 69.4326 80.3411 66.9452 80.3411 66.9452 77.463 66.9452 
77.463 64.547 80.3411 69.4326 83.3262 74.6879 80.3411 69.4326 77.463 
69.4326 72.0123 60.0051 74.6879 64.547 74.6879 69.4326 72.0123 62.2346 
77.463 69.4326 74.6879 60.0051 80.3411 66.9452 72.0123 62.2346 77.463 
66.9452 74.6879 66.9452 77.463 69.4326 66.9452 60.0051 72.0123 64.547 
64.547 57.8555 74.6879 66.9452 69.4326 62.2346 69.4326 60.0051 72.0123 
60.0051 66.9452 62.2346 66.9452 57.8555 72.0123 60.0051 72.0123 62.2346 
72.0123 62.2346 72.0123 64.547 74.6879 64.547 69.4326 57.8555 66.9452 
60.0051 66.9452 55.7829 69.4326 60.0051 64.547 57.8555 66.9452 55.7829 
66.9452 60.0051 66.9452 55.7829 66.9452 57.8555 64.547 55.7829 66.9452 
57.8555 64.547 53.7845 72.0123 62.2346 62.2346 51.8578 64.547 60.0051 
62.2346 53.7845 69.4326 60.0051 60.0051 53.7845 64.547 53.7845 60.0051 
53.7845 60.0051 53.7845 64.547 55.7829 64.547 60.0051 64.547 57.8555 
62.2346 53.7845 57.8555 51.8578 62.2346 51.8578 62.2346 55.7829 57.8555 
50 60.0051 53.7845 62.2346 55.7829 60.0051 53.7845 57.8555 50 
62.2346 55.7829 55.7829 48.2088 62.2346 53.7845 55.7829 51.8578 57.8555 
51.8578 57.8555 51.8578 55.7829 50 64.547 57.8555 60.0051 51.8578 
66.9452 62.2346 62.2346 55.7829 53.7845 48.2088 66.9452 55.7829 60.0051 
51.8578 60.0051 51.8578 53.7845 46.4818 64.547 60.0051 57.8555 50 
57.8555 48.2088 57.8555 50 57.8555 50 57.8555 51.8578 55.7829 
48.2088 62.2346 57.8555 51.8578 44.8166 53.7845 50 55.7829 48.2088 
60.0051 48.2088 53.7845 48.2088 55.7829 46.4818 55.7829 51.8578 55.7829 
48.2088 53.7845 50 51.8578 50 51.8578 44.8166 48.2088 43.2111 
53.7845 50 53.7845 48.2088 55.7829 50 50 43.2111 53.7845 
48.2088 53.7845 48.2088 51.8578 44.8166 53.7845 46.4818 53.7845 46.4818 
60.0051 55.7829 51.8578 46.4818 51.8578 44.8166 50 46.4818 51.8578 
46.4818 53.7845 51.8578 51.8578 48.2088 50 48.2088 48.2088 43.2111 
48.2088 43.2111 50 44.8166 46.4818 41.6631 48.2088 43.2111 48.2088 
43.2111 48.2088 43.2111 50 44.8166 44.8166 43.2111 44.8166 41.6631 
46.4818 38.7315 46.4818 43.2111 57.8555 51.8578 44.8166 38.7315 48.2088 
41.6631 44.8166 37.344 44.8166 38.7315 44.8166 41.6631 51.8578 44.8166 
43.2111 38.7315 46.4818 41.6631 55.7829 53.7845 41.6631 38.7315 41.6631 
38.7315 40.1706 36.0062 40.1706 34.7163 96.4176 86.4222 89.6332 80.3411 
86.4222 77.463 83.3262 74.6879 80.3411 72.0123 77.463 69.4326 83.3262 
74.6879 72.0123 62.2346 77.463 69.4326 64.547 57.8555 83.3262 77.463 
74.6879 69.4326 72.0123 62.2346 60.0051 55.7829 72.0123 64.547 80.3411 
72.0123 66.9452 60.0051 77.463 72.0123 74.6879 66.9452 64.547 60.0051 
74.6879 69.4326 69.4326 62.2346 77.463 66.9452 72.0123 66.9452 72.0123 
62.2346 72.0123 66.9452 77.463 66.9452 62.2346 60.0051 69.4326 62.2346 
69.4326 64.547 69.4326 64.547 72.0123 69.4326 72.0123 62.2346 66.9452 
57.8555 66.9452 62.2346 74.6879 66.9452 74.6879 66.9452 62.2346 60.0051 
64.547 62.2346 64.547 55.7829 64.547 57.8555 72.0123 64.547 69.4326 
62.2346 72.0123 66.9452 77.463 72.0123 69.4326 66.9452 64.547 55.7829 
64.547 57.8555 60.0051 57.8555 69.4326 62.2346 69.4326 64.547 66.9452 
62.2346 62.2346 60.0051 60.0051 53.7845 69.4326 62.2346 69.4326 62.2346 
66.9452 64.547 55.7829 51.8578 66.9452 57.8555 60.0051 55.7829 57.8555 
51.8578 64.547 57.8555 64.547 57.8555 53.7845 50 64.547 57.8555 
66.9452 60.0051 64.547 62.2346 62.2346 57.8555 53.7845 48.2088 62.2346 
55.7829 60.0051 53.7845 53.7845 51.8578 64.547 57.8555 57.8555 55.7829 
60.0051 57.8555 55.7829 53.7845 60.0051 55.7829 60.0051 53.7845 50 
44.8166 55.7829 51.8578 60.0051 57.8555 53.7845 51.8578 64.547 60.0051 
57.8555 55.7829 57.8555 53.7845 57.8555 53.7845 51.8578 44.8166 64.547 
57.8555 57.8555 53.7845 51.8578 48.2088 48.2088 46.4818 55.7829 51.8578 
51.8578 48.2088 55.7829 51.8578 48.2088 46.4818 53.7845 51.8578 55.7829 
53.7845 50 46.4818 64.547 60.0051 53.7845 51.8578 57.8555 55.7829 
53.7845 51.8578 60.0051 55.7829 50 48.2088 50 46.4818 62.2346 
60.0051 60.0051 53.7845 48.2088 44.8166 53.7845 51.8578 51.8578 50 
57.8555 51.8578 48.2088 46.4818 64.547 62.2346 53.7845 50 51.8578 
48.2088 51.8578 48.2088 51.8578 50 50 48.2088 44.8166 41.6631 
50 46.4818 43.2111 40.1706 55.7829 53.7845 51.8578 50 46.4818 
44.8166 48.2088 44.8166 46.4818 44.8166 43.2111 41.6631 46.4818 44.8166 
48.2088 43.2111 44.8166 40.1706 46.4818 44.8166 53.7845 48.2088 46.4818 
43.2111 44.8166 43.2111 43.2111 40.1706 55.7829 51.8578 53.7845 51.8578 
40.1706 37.344 50 48.2088 41.6631 40.1706 48.2088 46.4818 40.1706 
37.344 50 48.2088 41.6631 40.1706 38.7315 37.344 37.344 36.0062 
96.4176 86.4222 92.9635 83.3262 80.3411 77.463 89.6332 83.3262 74.6879 
69.4326 86.4222 80.3411 83.3262 74.6879 74.6879 69.4326 77.463 69.4326 
83.3262 80.3411 69.4326 64.547 66.9452 62.2346 74.6879 69.4326 64.547 
60.0051 72.0123 66.9452 66.9452 57.8555 74.6879 69.4326 74.6879 72.0123 
69.4326 66.9452 72.0123 66.9452 72.0123 64.547 74.6879 66.9452 69.4326 
66.9452 69.4326 64.547 69.4326 64.547 66.9452 64.547 66.9452 62.2346 
74.6879 69.4326 66.9452 62.2346 66.9452 64.547 72.0123 64.547 69.4326 
64.547 57.8555 55.7829 62.2346 57.8555 62.2346 60.0051 60.0051 55.7829 
66.9452 60.0051 72.0123 66.9452 69.4326 64.547 72.0123 66.9452 74.6879 
72.0123 62.2346 57.8555 62.2346 60.0051 69.4326 64.547 62.2346 57.8555 
66.9452 64.547 64.547 60.0051 60.0051 55.7829 62.2346 60.0051 62.2346 
57.8555 62.2346 60.0051 66.9452 62.2346 66.9452 64.547 66.9452 62.2346 
62.2346 60.0051 60.0051 55.7829 64.547 62.2346 72.0123 69.4326 64.547 
60.0051 62.2346 60.0051 62.2346 57.8555 57.8555 53.7845 57.8555 55.7829 
55.7829 53.7845 62.2346 57.8555 62.2346 60.0051 62.2346 60.0051 55.7829 
51.8578 53.7845 51.8578 60.0051 55.7829 60.0051 55.7829 53.7845 50 
51.8578 50 55.7829 51.8578 62.2346 57.8555 55.7829 53.7845 55.7829 
51.8578 51.8578 50 57.8555 55.7829 55.7829 53.7845 69.4326 66.9452 
55.7829 53.7845 46.4818 44.8166 62.2346 57.8555 60.0051 55.7829 62.2346 
60.0051 60.0051 57.8555 55.7829 51.8578 51.8578 50 57.8555 55.7829 
53.7845 51.8578 57.8555 53.7845 53.7845 51.8578 51.8578 50 62.2346 
60.0051 53.7845 51.8578 50 48.2088 53.7845 51.8578 50 48.2088 
48.2088 46.4818 60.0051 57.8555 51.8578 50 50 48.2088 60.0051 
55.7829 62.2346 60.0051 50 46.4818 55.7829 53.7845 50 48.2088 
51.8578 50 51.8578 48.2088 51.8578 50 55.7829 51.8578 50 
48.2088 55.7829 53.7845 51.8578 50 48.2088 46.4818 50 48.2088 
50 46.4818 46.4818 43.2111 50 48.2088 48.2088 46.4818 44.8166 
43.2111 44.8166 41.6631 50 48.2088 43.2111 41.6631 51.8578 50 
46.4818 44.8166 46.4818 44.8166 43.2111 41.6631 44.8166 41.6631 44.8166 
43.2111 40.1706 37.344 43.2111 41.6631 43.2111 40.1706 41.6631 40.1706 
40.1706 38.7315 38.7315 37.344 46.4818 44.8166 40.1706 38.7315 37.344 
36.0062 92.9635 89.6332 86.4222 83.3262 72.0123 66.9452 80.3411 74.6879 
80.3411 77.463 69.4326 66.9452 62.2346 60.0051 74.6879 72.0123 72.0123 
64.547 80.3411 74.6879 69.4326 64.547 77.463 74.6879 77.463 74.6879 
57.8555 55.7829 62.2346 60.0051 69.4326 66.9452 64.547 62.2346 77.463 
74.6879 62.2346 60.0051 64.547 62.2346 69.4326 66.9452 69.4326 66.9452 
66.9452 64.547 69.4326 66.9452 66.9452 64.547 64.547 60.0051 66.9452 
64.547 72.0123 66.9452 64.547 62.2346 69.4326 66.9452 74.6879 72.0123 
69.4326 66.9452 64.547 62.2346 60.0051 57.8555 57.8555 55.7829 51.8578 
50 62.2346 60.0051 66.9452 64.547 60.0051 55.7829 64.547 60.0051 
57.8555 55.7829 66.9452 64.547 60.0051 57.8555 62.2346 60.0051 69.4326 
66.9452 64.547 60.0051 57.8555 55.7829 62.2346 55.7829 60.0051 57.8555 
64.547 62.2346 60.0051 57.8555 57.8555 55.7829 62.2346 60.0051 62.2346 
60.0051 62.2346 60.0051 55.7829 53.7845 60.0051 57.8555 62.2346 57.8555 
57.8555 55.7829 60.0051 57.8555 62.2346 60.0051 60.0051 55.7829 62.2346 
57.8555 60.0051 57.8555 53.7845 51.8578 57.8555 55.7829 60.0051 55.7829 
57.8555 55.7829 64.547 60.0051 53.7845 50 57.8555 55.7829 57.8555 
55.7829 60.0051 55.7829 62.2346 60.0051 55.7829 53.7845 57.8555 55.7829 
64.547 62.2346 55.7829 53.7845 51.8578 50 60.0051 57.8555 53.7845 
51.8578 46.4818 44.8166 60.0051 57.8555 53.7845 51.8578 57.8555 55.7829 
50 48.2088 53.7845 51.8578 55.7829 53.7845 60.0051 57.8555 55.7829 
53.7845 48.2088 46.4818 55.7829 53.7845 55.7829 53.7845 55.7829 53.7845 
53.7845 51.8578 46.4818 44.8166 57.8555 55.7829 53.7845 51.8578 46.4818 
44.8166 57.8555 55.7829 57.8555 55.7829 50 48.2088 46.4818 44.8166 
46.4818 44.8166 51.8578 50 48.2088 46.4818 48.2088 46.4818 50 
48.2088 53.7845 51.8578 50 48.2088 44.8166 43.2111 57.8555 55.7829 
41.6631 40.1706 48.2088 44.8166 50 48.2088 50 48.2088 46.4818 
44.8166 46.4818 44.8166 48.2088 46.4818 50 48.2088 43.2111 41.6631 
43.2111 41.6631 41.6631 40.1706 41.6631 40.1706 44.8166 43.2111 38.7315 
37.344 38.7315 37.344 38.7315 37.344 41.6631 40.1706 43.2111 41.6631 
43.2111 41.6631 43.2111 41.6631 38.7315 37.344 36.0062 34.7163 89.6332 
86.4222 83.3262 80.3411 69.4326 66.9452 77.463 74.6879 77.463 72.0123 
74.6879 72.0123 72.0123 69.4326 66.9452 64.547 66.9452 62.2346 64.547 
62.2346 80.3411 77.463 64.547 62.2346 69.4326 66.9452 72.0123 69.4326 
66.9452 64.547 62.2346 60.0051 60.0051 57.8555 74.6879 72.0123 72.0123 
69.4326 69.4326 66.9452 69.4326 66.9452 69.4326 66.9452 66.9452 64.547 
74.6879 72.0123 64.547 62.2346 69.4326 66.9452 69.4326 66.9452 69.4326 
66.9452 62.2346 60.0051 66.9452 64.547 64.547 62.2346 69.4326 66.9452 
66.9452 64.547 64.547 62.2346 69.4326 66.9452 66.9452 64.547 74.6879 
72.0123 69.4326 66.9452 57.8555 55.7829 72.0123 69.4326 62.2346 57.8555 
60.0051 55.7829 62.2346 60.0051 64.547 62.2346 69.4326 64.547 66.9452 
64.547 60.0051 57.8555 66.9452 64.547 57.8555 55.7829 57.8555 55.7829 
62.2346 60.0051 60.0051 57.8555 64.547 62.2346 66.9452 64.547 64.547 
62.2346 60.0051 57.8555 64.547 62.2346 60.0051 57.8555 62.2346 60.0051 
62.2346 60.0051 60.0051 57.8555 60.0051 57.8555 57.8555 55.7829 57.8555 
55.7829 51.8578 50 57.8555 55.7829 57.8555 55.7829 55.7829 53.7845 
57.8555 55.7829 57.8555 55.7829 57.8555 55.7829 60.0051 57.8555 53.7845 
51.8578 50 48.2088 
