# vtk DataFile Version 4.1
vtk output
ASCII
DATASET POLYDATA
POINTS 1300 float
16125 47875 54078.1 14835.9 45358.8 52015.6 15325.8 46314.9 52799.4 
19476.6 43820.1 47375 14982.9 45645.6 52250.8 12000 42777.5 45054.7 
18182.2 44231.3 48153.8 18236 41945.3 42476.6 12700.4 42826.6 45300.7 
11608.1 40914.1 40671.9 19088.2 43943.5 47608.7 25782.7 39625 46085.9 
22703.2 41611.5 46786.4 23601.6 39185.7 40156.2 12372.8 42252.8 43912.1 
7617.19 36531.2 43609.9 11837.5 41315.7 41643.9 16125 41225.5 37062.5 
9424.35 38705.4 43724.8 6585.94 36584.9 36804.7 25338.9 39692.1 46022.4 
28551.6 36273.4 44281.2 23070.3 39983.2 41260.6 21539.1 40203.5 35257.8 
8430.53 36969.2 43906.8 6843.75 31739 45312.5 27564.3 37342.5 44277 
29531.2 35362.8 39898.4 7827.56 34981.7 44441 5727.94 32148.4 40929.7 
6747.12 36212.6 37454.9 4728.66 33437.5 33195.3 14967.4 41250.6 37505.4 
16125 41230.7 31390.6 6366.39 32526.5 42249.6 5039.06 27765.6 41579.4 
28941.2 35956.7 41212 27210.9 37644 36804.7 28255.4 36594.2 44280 
31078.1 31117.2 43513 22024.7 40287.8 36084.5 22054.7 41230.7 29585.9 
28006.8 36867.8 38832 30562.5 35876.4 35000 6634.3 36473.2 36999.8 
9937.5 40000.4 34742.2 5437.23 29193.9 41780.5 5812.5 24445 46085.9 
5200.76 33645.4 34020.6 4207.87 29570.3 30875 15155.3 41238 32028.9 
14835.9 41230.7 27523.4 5891.8 32010.5 41167 4207.87 29570.3 37062.5 
4585.21 31118.8 32070.3 4207.87 31632.8 28039.1 30198.4 32817.6 43170.9 
31851.6 29570.3 39151.8 27625.4 37521.3 37062.9 27726.6 39151.7 32421.9 
7889.54 37813.5 36141.9 7498.6 38593.8 32164.1 30814.2 31627.3 43410.4 
30121.1 26992.2 44539.1 31247.2 30887.3 39868.9 31668 30859.4 34226.6 
22336.2 41149.9 29846.2 23085.9 41750.4 24945.3 5722.47 24926.4 46026.3 
5812.5 22093.8 49563.3 4372.15 29694.8 30919.8 4222.31 25703.1 27523.4 
14982.8 41234.1 29595.9 11742.2 40719.2 28039.1 14779.1 41229.7 27599.1 
14062.5 41215.2 22882.8 4328.63 31179.6 28390.6 4207.87 30601.6 24687.5 
22801.1 41522.2 26807.7 19218.8 42203.1 24200.7 4870.25 33499.9 33442.9 
5296.88 35321.6 30359.4 4403.09 26744.8 27899 5224.69 25445.3 23656.2 
31670.3 29965.4 39366.9 31078.1 25441.2 39898.4 30105.6 27374.4 44033.5 
29273.4 23060 44023.4 31440.8 30874.5 37273.5 31137.9 26476.6 35000 
31467.6 30504.9 35139.7 30934.8 28281.2 31390.6 27696.2 38662.5 33814.2 
29577.7 35500 27523.4 22475.7 41261.6 28934.7 26301.4 40656.2 27523.4 
23929.4 41031.5 28398.4 26179.7 40211.8 30359.4 23000.5 41681.9 25504 
25423.8 38335.9 20820.3 4276.56 26015.6 27636.1 5954.81 21062.5 26750 
20077.7 42027.4 24395.3 18445.3 42260.9 20562.5 24063.8 40027.4 22617.7 
23153 40140.6 19273.4 5329.15 25471.3 24260.4 7555.31 23125 19789.1 
18482.4 42081.4 21380.8 15561.9 41429.7 19015.6 4444.76 30688.4 24869.4 
4881.28 30085.9 20046.9 7477.56 38199.7 32426.3 6976.78 38078.1 28554.7 
5317.09 22944.7 27086.7 5554.69 19980.7 30359.4 31031.8 26230.2 39502.2 
29605.5 22351.6 38093.8 29523.1 24354.3 44026.4 28041.1 21320.3 48406.2 
5996.99 24767.4 22919 5767.13 26218.8 20304.7 29073.7 35740.3 29149.8 
29606.5 31117.2 27007.8 30280.6 24121.6 38338.5 30046.9 23081.7 35515.6 
5763.51 21627.1 26851 7359.38 20266.4 23914.1 29348.3 23448.3 44024.4 
27877.1 19000 42476.6 29751.7 22896.1 37910.2 28576.3 20804.7 36031.2 
25021 38386.6 21232.9 25946.6 34468.8 19273.4 28436.2 20690.4 43064.7 
27468.8 18147.2 45570.3 16896.6 41716.6 19491.2 16125 41477.1 15148.4 
30741.8 28309.6 31844 29789.1 26476.6 29796.3 23390.2 39704 19967.9 
22570.3 37304.7 15873.4 5219.12 30397.6 20423.5 6070.31 30297.3 16695.3 
6955.44 37935.4 28927.4 6328.12 37429.5 25460.9 29873.6 26574.5 30283.6 
28555.7 23640.6 29328.1 5665.03 20246.7 29764.5 6801.47 16164.1 32421.9 
7460.85 23604.6 20128.8 9885.94 23382.8 16179.7 6970.39 38035.3 28666.5 
8906.25 39681.7 26492.2 29929.5 23152 35939.2 28757.8 21578.1 33097.3 
6625.23 20892.3 25265.1 8906.25 17289.2 25718.8 25298.7 37211.2 20645 
27468.8 34984.4 22292.9 7383.71 20416.5 24098.2 9368.25 19773.4 21851.6 
28666.4 20998.9 36466.4 26953.1 18158.5 35515.6 4400.62 30875.1 26207.4 
4781.25 34289.3 23656.2 5814.98 30327.4 17813.8 7617.19 26686.9 16179.7 
13895 41075 23867.5 11484.4 40186 20820.3 5993.69 30306.4 17030.9 
6782.91 33179.7 14890.6 9253.47 19949.5 21920.8 11226.6 19667.2 19531.2 
25676.4 34776.1 19463.3 25266 31375 17984.4 6047.31 30300.1 16796 
7359.38 29570.3 13994.5 27467.1 19010.6 35800.9 25921.9 16662.2 38351.6 
6370.41 18500.6 30420.9 8511.28 15648.4 29328.1 28825.9 21731.9 33925.3 
26314.8 18742.2 31906.2 6915.63 16397.8 32134.3 8448.38 13328.1 34226.6 
27554.7 18572.7 44657.2 25664.1 14828.6 45312.5 9254.3 23886.9 16649.4 
10401.6 24929.7 13343.8 28825.9 24714.6 29269.8 26437.5 22301 25976.6 
22832.1 37338.9 16733.1 22859.1 32921.9 14117.2 6908.31 32732.9 14998 
8132.81 34867.8 12828.1 6841.38 37882.2 26554.5 8067.84 39109.4 22625 
25187.8 32221.1 18094.9 23916.1 30859.4 15921.9 15916.2 41310.2 18971.4 
12468.2 39367.2 16695.3 7601.82 38643 24118.2 6277.59 36789.1 21335.9 
7215.93 29839.5 14262.7 8865 30085.9 10507.8 7743.31 14740.2 33264.1 
6843.75 14461.5 36289.1 27727.7 23863.9 27468.6 26953.1 24671.9 24637 
25911 16900 37896.3 24117.2 14827.6 39640.6 26766.4 19224.6 32631.8 
24697.8 16421.9 33195.3 26309.6 18807.7 32082.7 24632.8 17453.1 30523.3 
8482.3 13578.5 34142.4 10453.1 11586.3 36031.2 8090.94 34530.2 13269.6 
10195.3 36573.5 11796.9 25813.6 15478.7 44919 23085.9 12251.5 43765.6 
25111.4 17999.4 30728.5 23859.4 17968.8 28090.6 23975.8 30970.9 15972.2 
22312.5 29312.5 12997.3 6780.85 37493.6 22393.2 7875 38078.1 19438.4 
27126.2 24736.1 25083.7 26695.3 26689 22367.2 6424.65 36862.2 21381.1 
6070.31 35550.5 19015.6 7104.24 14341.9 35869.4 6969.56 13070.3 39125 
9861.91 12184 35464.6 9537.38 11523.4 38609.4 6274.29 35933.7 19322.4 
6843.75 35757.8 16644.8 23934 30892.8 15936.9 23085.9 26734.4 15871.3 
23915.9 17868.7 28543 21848.4 17195.3 26234.4 23062.3 12533.4 44042.4 
20663.5 10492.2 43765.6 26629.6 25889.6 22993.1 25148.4 25860.9 20046.9 
23152.8 28045.5 15540.4 21443.2 25703.1 13343.8 22525 29796.4 13343.6 
20622.3 29570.3 9734.38 6672.87 35810.6 17448.1 9374.44 37820.3 16179.7 
9562.64 11279.8 38289.9 9164.06 9709.47 41960.9 24776.4 17617 30584.9 
20765.6 14815.2 29585.9 27354.8 24404.7 25990 28500 28015.2 24945.3 
22939.5 26993 15745.7 21796.9 23805.6 16179.7 21497.5 29674.3 11394.7 
19752.9 26218.8 10250 22468.7 17397.3 26927 22570.3 18989.7 23914.1 
21882.3 17276 26318.2 19476.6 16920 23914.1 21303.5 15071.2 30186.6 
19248.7 13328.1 30875 28297.3 27844.8 25123.8 28757.8 30501.5 24687.5 
22682.2 19060.5 24274.7 23085.9 21062.5 21758.8 19873.5 17157 24130 
17671.9 17926.5 20820.3 19372.6 13690.5 30653 16171.4 12554.7 30617.2 
28582.8 29492 24853.3 27468.8 30859.4 21786.6 18156.2 13258.9 30639.4 
16898.4 11779.2 33195.3 22603.9 19010.9 24022.3 20765.6 19133 21593.8 
20927 14892 29766.2 17671.9 14160.3 27781.2 22139.7 24761.8 16049.5 
22570.3 22712.5 19015.6 17483 12293.2 32661.7 17929.7 11751.3 35773.4 
22237.5 22978.9 18287 21023.4 20663.4 19531.2 21710.4 24021.8 16227.6 
19734.4 21320.3 17070.7 19861.4 21663 17201.1 17929.7 19456.8 18500 
15678 44001.2 50091.4 18445.3 45325.8 52789.1 16729.6 44504.6 51116.6 
19476.6 44340.9 50468.8 15369.5 44821.7 50603.5 15609.4 44811.2 47117.2 
19053.5 44227.8 50387.3 21104.9 43750 49437.5 18198.3 43545.5 46450.6 
15867.2 43794.3 44796.9 19360.1 43857.1 47445.1 20765.6 42261.9 44796.9 
16065.7 43582.1 44905.1 14578.1 43249.8 43765.6 20574.6 42375 44963.7 
21281.2 41429.7 43365.5 17852.4 42278.2 43141.6 16898.4 41762.8 41445.3 
15180.7 43246.2 43930.7 14313.1 42203.1 41445.3 11676.9 41034.5 40963.5 
9679.69 39675.5 39898.4 18256.8 41970.7 42599.2 19781.8 40914.1 40929.7 
19324.3 41231.1 41430.6 18445.3 40739.8 39382.8 10057.1 39891.1 39933.4 
8523.66 38593.8 38093.8 23357.2 39552.5 40664.2 25148.4 38649.4 40929.7 
24467.8 38992.6 40828.8 25686.8 39109.4 43507.8 19011 40903.2 40010.6 
19785.9 40398.4 37578.1 7389.18 34245.2 43783.6 6585.94 34867.8 42218.8 
27977.3 36926.8 43357.6 27210.9 37414 41703.1 6694.53 34752.1 42245.3 
5812.5 35242.2 39390 23528.2 39295.7 40308.7 24426.6 38851.6 37835.9 
21684.8 40228.8 35505.8 19992.2 40714 35000 24104.6 39058.8 38287 
23859.4 39475.5 36289.1 7260.27 32714.7 45343.3 7359.38 30601.6 47711.2 
15926.2 41239.5 34545.1 17156.2 41230.7 33195.3 9853.76 39579 35120.1 
13289.1 41208 34742.2 24944.2 38752.4 40899.5 26488 37820.3 39125 
20500 40568.5 35151.8 19992.2 41071.8 32421.9 29354.2 35541 40292.5 
30820.3 33179.7 40202.7 23997.8 39394 36539.8 24375 39697.2 34226.6 
4771.15 33456.2 33269.6 4707 32664.1 30875 19825.3 40995.5 32643.9 
18960.9 41230.7 30875 5254.39 30829.6 39845.1 4586.34 28281.2 39640.6 
29130.2 36192.1 37549.7 31101.8 33953.1 37062.5 5496.63 31278.3 40347.4 
4723.5 32406.2 37835.9 5074.43 27862.5 41513.6 4523.44 25703.1 40721.4 
19158.2 41209.6 31027.8 18703.1 41533.8 28554.7 9912.33 39873.9 34855.6 
9937.5 40156.1 32937.5 15127.7 41237.3 32820.2 13031.2 41228.6 31390.6 
11628.8 40950.3 40759.3 11484.4 40516 37835.9 4931.91 31993.4 38261.4 
4721.44 31632.8 36031.2 4681.01 26069.6 41072.7 4586.34 24156.2 41703.1 
4801.46 31769.8 36878.7 4751.34 33179.7 35773.4 4257.17 29607.7 30888.4 
4207.87 27765.6 31648.4 30998.9 31270.2 43482.1 31593.8 28796.9 41216.4 
4521.79 29948.1 37897.3 4207.87 27765.6 37835.9 5747.53 23584.5 47134 
5727.94 20804.7 47117.2 30298.8 35728.5 35399.7 31441.1 34210.9 32937.5 
30641.5 35273.2 34661 30623.3 36273.4 32421.9 27715 38965.8 32950.9 
25969.3 39882.8 32164.1 10075.1 40157.3 33238.8 10968.8 40708.8 31390.6 
4317.8 28312.9 37640.8 4207.87 26218.8 36289.1 4225.1 28085.5 31274.2 
4207.87 25445.3 30875 4355.96 31063.9 27561 4207.87 28281.2 26492.2 
31410.9 28708.8 36813.1 31593.8 26909.7 37578.1 31535.5 30714.7 34367.4 
31451.4 31117.2 31906.2 27723.1 39095.9 32580.6 28551.6 38851.6 30359.4 
24641 40919 28135.9 25213.4 41171.9 25203.1 7705.98 38661 27840.3 
9164.06 39699.2 28554.7 13985.5 41150.7 23335.8 16382.8 41745.2 22625 
8834.89 39546.4 26784 10710.9 40684.1 25976.6 25504.6 40457.7 29771.1 
[...]
CELL_DATA 1299
SCALARS radius float
LOOKUP_TABLE default
86.4222 100 86.4222 96.4176 86.4222 96.4176 80.3411 92.9635 74.6879 
92.9635 83.3262 89.6332 77.463 89.6332 74.6879 83.3262 72.0123 86.4222 
74.6879 86.4222 77.463 86.4222 77.463 83.3262 69.4326 83.3262 69.4326 
80.3411 69.4326 83.3262 72.0123 77.463 66.9452 74.6879 66.9452 77.463 
66.9452 80.3411 69.4326 83.3262 74.6879 74.6879 62.2346 80.3411 66.9452 
72.0123 60.0051 80.3411 69.4326 69.4326 60.0051 72.0123 62.2346 77.463 
69.4326 77.463 66.9452 72.0123 62.2346 77.463 72.0123 74.6879 66.9452 
74.6879 64.547 80.3411 66.9452 62.2346 55.7829 74.6879 66.9452 66.9452 
62.2346 64.547 55.7829 74.6879 64.547 74.6879 66.9452 77.463 69.4326 
72.0123 62.2346 72.0123 66.9452 69.4326 62.2346 72.0123 62.2346 69.4326 
64.547 69.4326 57.8555 77.463 66.9452 74.6879 69.4326 72.0123 62.2346 
69.4326 60.0051 72.0123 62.2346 69.4326 57.8555 64.547 53.7845 66.9452 
57.8555 66.9452 57.8555 74.6879 64.547 66.9452 60.0051 69.4326 60.0051 
66.9452 55.7829 62.2346 57.8555 62.2346 51.8578 66.9452 62.2346 64.547 
57.8555 64.547 53.7845 64.547 55.7829 66.9452 57.8555 57.8555 53.7845 
64.547 60.0051 66.9452 57.8555 64.547 55.7829 62.2346 51.8578 69.4326 
60.0051 64.547 57.8555 62.2346 53.7845 57.8555 50 66.9452 55.7829 
64.547 57.8555 62.2346 55.7829 64.547 53.7845 60.0051 53.7845 60.0051 
53.7845 69.4326 62.2346 57.8555 51.8578 60.0051 51.8578 55.7829 48.2088 
55.7829 53.7845 62.2346 57.8555 53.7845 46.4818 55.7829 50 60.0051 
51.8578 62.2346 53.7845 57.8555 51.8578 55.7829 48.2088 53.7845 50 
62.2346 57.8555 57.8555 48.2088 50 44.8166 64.547 53.7845 60.0051 
53.7845 62.2346 55.7829 60.0051 50 50 46.4818 55.7829 46.4818 
60.0051 51.8578 51.8578 48.2088 60.0051 55.7829 57.8555 51.8578 53.7845 
46.4818 48.2088 44.8166 53.7845 50 55.7829 50 57.8555 51.8578 
57.8555 51.8578 55.7829 46.4818 55.7829 51.8578 50 43.2111 50 
43.2111 53.7845 50 55.7829 50 51.8578 46.4818 51.8578 46.4818 
51.8578 46.4818 53.7845 44.8166 53.7845 50 51.8578 46.4818 46.4818 
43.2111 53.7845 46.4818 57.8555 51.8578 51.8578 46.4818 51.8578 48.2088 
50 41.6631 48.2088 41.6631 50 46.4818 53.7845 50 44.8166 
40.1706 44.8166 41.6631 48.2088 44.8166 51.8578 44.8166 46.4818 41.6631 
43.2111 38.7315 48.2088 43.2111 50 46.4818 44.8166 41.6631 48.2088 
43.2111 48.2088 43.2111 44.8166 40.1706 89.6332 80.3411 86.4222 74.6879 
92.9635 77.463 77.463 69.4326 92.9635 80.3411 89.6332 77.463 86.4222 
74.6879 80.3411 72.0123 86.4222 80.3411 83.3262 72.0123 80.3411 72.0123 
83.3262 74.6879 80.3411 74.6879 74.6879 69.4326 83.3262 72.0123 80.3411 
69.4326 77.463 72.0123 77.463 69.4326 80.3411 77.463 72.0123 66.9452 
80.3411 69.4326 80.3411 72.0123 72.0123 66.9452 74.6879 66.9452 74.6879 
69.4326 74.6879 69.4326 77.463 69.4326 77.463 72.0123 74.6879 62.2346 
69.4326 60.0051 74.6879 69.4326 74.6879 69.4326 66.9452 64.547 72.0123 
66.9452 69.4326 60.0051 69.4326 64.547 72.0123 64.547 72.0123 64.547 
72.0123 62.2346 77.463 66.9452 66.9452 60.0051 66.9452 62.2346 62.2346 
57.8555 72.0123 64.547 72.0123 62.2346 64.547 60.0051 60.0051 57.8555 
64.547 60.0051 62.2346 60.0051 66.9452 62.2346 66.9452 62.2346 62.2346 
57.8555 66.9452 60.0051 72.0123 64.547 69.4326 64.547 66.9452 60.0051 
64.547 62.2346 72.0123 66.9452 62.2346 57.8555 57.8555 53.7845 60.0051 
55.7829 72.0123 62.2346 69.4326 62.2346 69.4326 55.7829 64.547 57.8555 
64.547 60.0051 64.547 57.8555 64.547 60.0051 69.4326 62.2346 57.8555 
51.8578 60.0051 53.7845 74.6879 69.4326 69.4326 62.2346 62.2346 53.7845 
64.547 60.0051 64.547 60.0051 60.0051 55.7829 62.2346 55.7829 62.2346 
57.8555 55.7829 50 62.2346 53.7845 57.8555 51.8578 66.9452 64.547 
57.8555 55.7829 62.2346 57.8555 62.2346 55.7829 55.7829 53.7845 51.8578 
48.2088 60.0051 55.7829 55.7829 51.8578 62.2346 57.8555 57.8555 55.7829 
55.7829 48.2088 60.0051 57.8555 57.8555 53.7845 53.7845 51.8578 57.8555 
53.7845 57.8555 55.7829 55.7829 53.7845 60.0051 53.7845 53.7845 50 
50 48.2088 60.0051 57.8555 51.8578 50 57.8555 53.7845 64.547 
57.8555 62.2346 60.0051 60.0051 55.7829 57.8555 53.7845 55.7829 51.8578 
53.7845 50 66.9452 64.547 57.8555 51.8578 48.2088 44.8166 53.7845 
50 57.8555 53.7845 55.7829 53.7845 53.7845 51.8578 51.8578 48.2088 
62.2346 55.7829 53.7845 48.2088 51.8578 48.2088 55.7829 51.8578 53.7845 
50 50 46.4818 51.8578 48.2088 57.8555 53.7845 48.2088 46.4818 
51.8578 48.2088 46.4818 43.2111 48.2088 46.4818 53.7845 50 48.2088 
44.8166 50 46.4818 44.8166 41.6631 51.8578 48.2088 48.2088 46.4818 
50 44.8166 46.4818 43.2111 48.2088 44.8166 46.4818 43.2111 50 
48.2088 50 44.8166 46.4818 43.2111 46.4818 43.2111 44.8166 41.6631 
43.2111 41.6631 40.1706 38.7315 43.2111 41.6631 46.4818 41.6631 48.2088 
44.8166 46.4818 44.8166 43.2111 41.6631 46.4818 44.8166 83.3262 80.3411 
83.3262 77.463 80.3411 77.463 83.3262 80.3411 72.0123 66.9452 89.6332 
86.4222 80.3411 77.463 86.4222 80.3411 83.3262 80.3411 83.3262 77.463 
74.6879 69.4326 80.3411 74.6879 80.3411 77.463 77.463 74.6879 72.0123 
69.4326 77.463 74.6879 77.463 72.0123 77.463 72.0123 69.4326 66.9452 
72.0123 64.547 72.0123 66.9452 74.6879 66.9452 72.0123 66.9452 69.4326 
66.9452 69.4326 66.9452 74.6879 72.0123 72.0123 66.9452 66.9452 64.547 
69.4326 66.9452 64.547 60.0051 80.3411 77.463 64.547 60.0051 66.9452 
62.2346 69.4326 62.2346 69.4326 64.547 69.4326 64.547 66.9452 62.2346 
64.547 62.2346 64.547 60.0051 66.9452 64.547 66.9452 62.2346 64.547 
62.2346 64.547 60.0051 64.547 60.0051 66.9452 62.2346 64.547 62.2346 
62.2346 55.7829 60.0051 57.8555 72.0123 66.9452 66.9452 62.2346 66.9452 
62.2346 72.0123 69.4326 55.7829 51.8578 62.2346 60.0051 66.9452 62.2346 
64.547 60.0051 69.4326 66.9452 69.4326 62.2346 72.0123 69.4326 60.0051 
57.8555 72.0123 69.4326 60.0051 55.7829 62.2346 57.8555 60.0051 55.7829 
62.2346 60.0051 72.0123 66.9452 60.0051 55.7829 57.8555 55.7829 62.2346 
57.8555 55.7829 53.7845 60.0051 57.8555 57.8555 55.7829 60.0051 57.8555 
60.0051 55.7829 64.547 60.0051 57.8555 55.7829 62.2346 60.0051 55.7829 
53.7845 60.0051 57.8555 66.9452 64.547 60.0051 53.7845 60.0051 57.8555 
55.7829 53.7845 53.7845 50 55.7829 53.7845 57.8555 55.7829 60.0051 
55.7829 51.8578 48.2088 55.7829 53.7845 55.7829 51.8578 62.2346 60.0051 
53.7845 51.8578 55.7829 51.8578 64.547 60.0051 60.0051 55.7829 51.8578 
48.2088 53.7845 51.8578 51.8578 50 53.7845 51.8578 50 48.2088 
51.8578 50 46.4818 44.8166 46.4818 44.8166 48.2088 46.4818 51.8578 
50 50 48.2088 57.8555 55.7829 53.7845 51.8578 53.7845 51.8578 
55.7829 51.8578 46.4818 44.8166 48.2088 46.4818 50 48.2088 44.8166 
43.2111 50 48.2088 46.4818 44.8166 50 48.2088 44.8166 41.6631 
50 46.4818 51.8578 50 43.2111 41.6631 46.4818 44.8166 44.8166 
43.2111 44.8166 43.2111 48.2088 46.4818 48.2088 46.4818 55.7829 53.7845 
44.8166 43.2111 43.2111 41.6631 44.8166 43.2111 41.6631 40.1706 44.8166 
43.2111 43.2111 41.6631 41.6631 40.1706 41.6631 40.1706 89.6332 86.4222 
80.3411 77.463 74.6879 72.0123 83.3262 77.463 89.6332 86.4222 69.4326 
66.9452 77.463 72.0123 74.6879 72.0123 77.463 72.0123 77.463 72.0123 
72.0123 66.9452 80.3411 74.6879 77.463 74.6879 77.463 74.6879 74.6879 
69.4326 74.6879 69.4326 74.6879 72.0123 74.6879 72.0123 69.4326 66.9452 
69.4326 66.9452 66.9452 60.0051 64.547 62.2346 69.4326 66.9452 69.4326 
66.9452 69.4326 66.9452 72.0123 69.4326 60.0051 55.7829 69.4326 64.547 
77.463 72.0123 72.0123 69.4326 62.2346 60.0051 66.9452 64.547 72.0123 
69.4326 62.2346 60.0051 64.547 60.0051 69.4326 66.9452 69.4326 64.547 
64.547 62.2346 66.9452 62.2346 64.547 62.2346 62.2346 60.0051 69.4326 
66.9452 57.8555 55.7829 62.2346 60.0051 64.547 60.0051 64.547 62.2346 
60.0051 57.8555 66.9452 64.547 60.0051 57.8555 66.9452 64.547 66.9452 
64.547 64.547 60.0051 53.7845 51.8578 57.8555 55.7829 64.547 60.0051 
62.2346 60.0051 66.9452 64.547 60.0051 57.8555 62.2346 60.0051 62.2346 
60.0051 60.0051 57.8555 62.2346 60.0051 55.7829 53.7845 62.2346 60.0051 
57.8555 55.7829 60.0051 57.8555 66.9452 62.2346 57.8555 55.7829 64.547 
62.2346 62.2346 60.0051 69.4326 66.9452 55.7829 53.7845 55.7829 51.8578 
60.0051 57.8555 64.547 62.2346 62.2346 60.0051 60.0051 57.8555 53.7845 
51.8578 53.7845 51.8578 53.7845 51.8578 57.8555 55.7829 55.7829 53.7845 
50 48.2088 57.8555 55.7829 57.8555 55.7829 50 48.2088 60.0051 
57.8555 51.8578 50 51.8578 50 55.7829 53.7845 55.7829 53.7845 
55.7829 53.7845 62.2346 60.0051 57.8555 55.7829 53.7845 51.8578 50 
48.2088 51.8578 50 53.7845 51.8578 55.7829 53.7845 51.8578 50 
51.8578 50 57.8555 55.7829 57.8555 55.7829 55.7829 53.7845 55.7829 
53.7845 48.2088 46.4818 50 48.2088 50 48.2088 53.7845 51.8578 
51.8578 50 55.7829 53.7845 50 48.2088 53.7845 50 51.8578 
50 53.7845 51.8578 48.2088 46.4818 48.2088 46.4818 43.2111 41.6631 
48.2088 46.4818 48.2088 46.4818 48.2088 46.4818 50 48.2088 46.4818 
44.8166 44.8166 43.2111 43.2111 41.6631 50 48.2088 43.2111 41.6631 
48.2088 46.4818 44.8166 43.2111 46.4818 44.8166 43.2111 41.6631 46.4818 
44.8166 83.3262 80.3411 86.4222 83.3262 80.3411 77.463 86.4222 83.3262 
77.463 74.6879 89.6332 86.4222 80.3411 77.463 74.6879 72.0123 69.4326 
66.9452 74.6879 72.0123 74.6879 72.0123 74.6879 72.0123 77.463 74.6879 
72.0123 69.4326 74.6879 72.0123 72.0123 69.4326 74.6879 69.4326 72.0123 
69.4326 72.0123 69.4326 69.4326 66.9452 77.463 74.6879 72.0123 69.4326 
62.2346 60.0051 74.6879 72.0123 72.0123 69.4326 66.9452 64.547 74.6879 
72.0123 57.8555 55.7829 62.2346 60.0051 64.547 62.2346 66.9452 64.547 
69.4326 66.9452 69.4326 66.9452 62.2346 60.0051 62.2346 60.0051 64.547 
62.2346 66.9452 64.547 62.2346 60.0051 72.0123 69.4326 62.2346 60.0051 
74.6879 72.0123 64.547 62.2346 69.4326 66.9452 57.8555 55.7829 64.547 
62.2346 64.547 62.2346 62.2346 60.0051 69.4326 66.9452 62.2346 60.0051 
64.547 62.2346 69.4326 66.9452 66.9452 64.547 66.9452 64.547 64.547 
62.2346 64.547 62.2346 62.2346 60.0051 66.9452 64.547 66.9452 64.547 
69.4326 66.9452 64.547 62.2346 60.0051 57.8555 60.0051 57.8555 57.8555 
55.7829 64.547 62.2346 62.2346 60.0051 60.0051 57.8555 64.547 62.2346 
55.7829 53.7845 60.0051 57.8555 57.8555 55.7829 60.0051 57.8555 53.7845 
51.8578 53.7845 51.8578 57.8555 55.7829 53.7845 51.8578 62.2346 60.0051 
60.0051 57.8555 57.8555 55.7829 51.8578 50 60.0051 57.8555 57.8555 
55.7829 57.8555 55.7829 
