# vtk DataFile Version 4.1
vtk output
ASCII
DATASET POLYDATA
POINTS 1300 float
16125 47875 54078.1 15093.8 45355.7 51757.8 15403.1 46111.5 52453.9 
19734.4 43794.3 47117.2 15186.6 45582.4 51966.6 12000 42777.5 45054.7 
18348.4 44153 47872.3 18187.5 41887.6 42218.8 12655.1 42928.9 45486.4 
11608.1 40914.1 40671.9 19318.6 43901.9 47343.8 25782.7 39625 46085.9 
22809.2 41592.4 46664.6 24198.7 39109.4 39898.4 12341 42324.5 44042 
7617.19 36531.2 43609.9 17942.2 42406.6 43023.3 16125 41225.5 37062.5 
9412.18 38732.7 43774.1 6585.94 36584.9 36804.7 25367.5 39687 45989.5 
28551.6 36273.4 44281.2 23451.2 39932.9 41075.6 21539.1 40203.5 35257.8 
8424.35 36983.1 43932 6843.75 31739 45312.5 27555.2 37359.9 44301.7 
29395.1 35500 40156.2 7823.75 34990.3 44456.6 5727.94 32148.4 40929.7 
6744.23 36219.1 37394.6 4728.66 33437.5 32937.5 16634.3 41604.9 37381.9 
15867.2 41230.7 31390.6 16277.8 41339.4 37158.3 11742.2 40713 35000 
28843.2 36058 41399.8 27726.6 37607.9 36546.9 7042.37 32104.1 44946.8 
5812.5 26218.8 44840.2 22078.7 40404.5 35675.8 21281.2 41230.7 30101.6 
28252.7 36599.4 44287.3 31078.1 30343.8 43798.6 6090.63 28206.5 44438.3 
4724.53 25703.1 41703.1 29229.5 35667.4 40529.4 31593.8 31890.6 39698.4 
28862.8 36326.1 39121.4 31136.9 34984.4 34484.4 15393.1 41369.2 31874.9 
14062.5 41230.7 27265.6 5972.96 32408.2 40903.3 4207.87 29828.1 36804.7 
5932.12 26604.2 44990.5 5812.5 22867.2 47148.1 5199.94 33466.7 33960.4 
4207.87 28281.2 31648.4 6633.38 36475.1 36981.6 7828.59 38851.6 31906.2 
4664.2 30666.5 32712 4207.87 30085.9 27523.4 30454.7 35386.9 35875.5 
32166.1 30859.4 35257.8 27852.9 37550.6 36700.6 26437.5 39670.4 32679.7 
21749.2 41079.9 30920.8 23085.9 41747.3 25203.1 14993.9 41327.6 30492.1 
10453.1 40516 29585.9 30955.4 32369 40027.1 31593.8 28023.4 40444 
30134.8 31347 44077 29789.1 25445.3 44844.3 30932.2 35105.1 34901.7 
30046.9 37368.6 30875 21683.7 41354 28504.4 18703.1 41750.4 24687.5 
18718.5 41482.4 25331.4 15351.6 41246.1 22625 4381.33 30306.6 29495.1 
4729.69 24156.2 26750 31623.9 31531.4 35532.9 31593.8 26928.2 36031.2 
4268.62 30235.3 27708.2 4207.87 30601.6 23914.1 22942.4 41452.3 25733.5 
24764.8 40398.4 22625 4595.31 27597.8 27644.7 5039.06 26334.2 23140.6 
11815.4 40759.5 29857.8 9600.28 40140.6 25203.1 31287.6 28763.6 40146.8 
30637.8 24929.7 39125 29582.7 25749.1 44493.6 29058.9 22093.8 44539.1 
31916.6 31168.5 35384.3 31122.5 29312.5 31132.8 5163.64 26298.3 24031.9 
6784.97 23640.6 20820.3 30212.4 36387 31630.5 29015.6 36015.6 26204.5 
26705 39437.6 32779.9 26179.7 40656.2 29591.1 26544 40094 30381.6 
27468.8 39686.9 27265.6 29853.3 36275.6 30002.7 30131.4 33179.7 28554.7 
16361.6 41317 23436.9 16382.8 41716.4 17726.6 24370.9 40285.9 23139.5 
25466.1 37562.5 20304.7 4689.37 25188.7 27018.4 5242.22 20546.9 30617.2 
24962.3 38815.3 21608.7 23708.8 39109.4 18757.8 4340.6 30394.4 24390.1 
5039.06 29828.1 19997.4 7331.94 38036.7 32771.3 6585.94 37614.1 28296.9 
31360.7 29869.3 32408.3 30114.9 25187.5 32164.1 4717.62 24466 26830.5 
6801.47 20804.7 24687.5 24084.9 39021.1 19613.1 21023.4 41237.9 18500 
30464.3 25452.6 39100.6 29089.9 21320.3 37578.1 5708.55 22491.5 26157.5 
6585.94 19515.6 27381.1 15735.4 41273 22933.5 12773.4 40716.1 24171.9 
29216.1 23190.4 44525.4 27726.6 20546.9 48766.2 6971.31 23917.5 21085.8 
8840.25 22351.6 19015.6 16045.2 41424 19160.1 14012 40398.4 16953.1 
29106.1 22422.7 44534.9 27544 18742.2 42734.4 5396.29 20866.8 29970 
6266.25 17710.9 31390.6 29236.6 35709.6 27202.1 28500 33179.7 23834.7 
6429.08 24631.8 21969.6 6763.31 25960.9 18757.8 25327.4 37696.1 20933.6 
26310.7 33953.1 20046.9 5104.34 30140.7 20478.5 6070.31 30297.3 16695.3 
23821.6 39082.9 19014.4 22828.1 37046.9 15869.3 28915.9 21532 37694.8 
27726.6 18971.1 36804.7 6692.78 37663.8 28504.5 6328.12 37429.5 25203.1 
8279.56 22821.3 19636.7 9421.88 23898.4 16039.4 30288.8 26533.3 31816.4 
28242.2 23096.1 29070.3 6322.76 20408.4 27014.1 8906.25 17569.7 25460.9 
30028.5 25368.6 32167.2 28864 21578.1 33453.1 6778.37 21079.6 24795.7 
8744.34 19515.6 22625 28012.6 19846.3 43274.5 26511.8 16679.7 45312.5 
14621.9 40706.2 17615.2 15609.4 40851.2 13859.4 5780.53 30250.4 17830.3 
6259.03 33437.5 16179.7 14846.8 41106 23305 11742.2 40196.3 20820.3 
6912.23 25752.2 18991.5 7677 26734.4 15921.9 23042.9 41658.8 25362.2 
21281.2 42260.9 22367.2 28093.6 20000.1 36754.3 26695.3 18455.5 33710.9 
4247.68 30539.4 24056.9 5039.06 34519.3 23140.6 30696.2 27801 32041.3 
29273.4 26689 28039.1 6292.65 18129.9 31072.9 8132.81 14617.2 31860.9 
25856.8 34602.8 19961.5 24964.9 31375 17726.6 6115.9 30131.7 16960.8 
7617.19 29312.5 13808.8 23096.8 37127.4 16473.2 22831.2 33695.3 14117.2 
6115.48 32481.4 16674.9 7333.59 32921.9 13085.9 6844.68 17076.1 31309.3 
8854.69 15648.4 28812.5 27836.7 19279.8 36789.6 25406.2 16362.1 38351.6 
7231.19 16338.4 31474.8 6823.13 14875 35000 26964.6 18909.4 34099.5 
25921.9 18718.5 30617.2 6978.12 15431 33660.4 8648.44 12964.1 34484.4 
28741.9 24368.7 29526.1 26695.3 23593.2 25460.9 9561.61 23481.6 16613.1 
11226.6 23640.6 13976.9 9721.04 39958.2 25454 8132.81 38958.8 22109.4 
7340.81 29678.1 14269.9 8538.09 30343.8 11023.4 7127.45 33128.6 14204.9 
8906.25 35500 12106.2 26745.3 17354.9 44454.8 24427.6 13585.9 44281.2 
26776.1 18591.7 33827.5 24890.6 16769.4 32937.5 24981.6 32029.9 17933 
23364.4 29828.1 14890.6 8207.89 38757.7 22890.9 6585.94 37098.4 21078.1 
14083.5 40363.4 17235.5 11952.6 38851.6 16179.7 27237 24215.6 26112.1 
26291.1 24929.7 23140.6 25750.9 16735 38443.3 23859.4 14359.4 40464.6 
25990 18535.9 31763.8 23801.6 16937.5 30101.6 6872.21 14961.3 34928.2 
6786 14101.6 37835.9 23587.4 30602.6 15214.4 22312.5 30077.7 12570.3 
7332.05 37861.7 21912 7875 37953.3 19015.6 28178.6 23424.4 29050.1 
25967.2 20804.7 27265.6 8172.1 13659.4 34629.1 9421.88 11762.7 37578.1 
6825.5 37202.9 21111.8 6005.34 35500 18757.8 24504.8 14070.1 44467 
22054.7 11007.8 44746.3 24191.4 17369.1 30153.3 22365.1 16937.5 27265.6 
23431.3 30060.5 14987.8 21995.9 26734.4 13859.4 26574.9 24715.5 24032.1 
27001.6 28023.4 22109.4 26340.8 24981.9 23235.2 25774.4 25960.9 21078.1 
22885.8 28796.5 14559 23343.8 26476.6 16171.4 22391.9 29959.2 12911.1 
21138.9 29054.7 10765.6 7989.98 37886.7 19253.5 8906.25 37820.3 16555.1 
6817.35 13964.1 37556.2 6843.75 11461.6 41445.3 25762.2 26008.6 21190.9 
25083.5 27250 19015.6 22742.5 17198.4 27633.3 21539.1 17968.8 24322.4 
23918.5 17067 30117.1 21023.4 14864.7 29585.9 7231.5 12129.5 40111 
9679.69 9976.56 41637.1 21514.8 29326.1 11409.2 19992.2 25703.1 10903.8 
22135.1 27059.1 14192.6 20765.6 23898.4 14490.5 29525.1 27346.3 28597.9 
28546.4 27765.6 25460.9 25504.3 26480.3 20364.3 23859.4 25187.5 18445.3 
22478.3 17015.8 27375.9 19781.8 15648.4 26492.2 22140.7 17963.2 25315.8 
22828.1 19854.9 23140.6 21719.6 17967.1 24620.4 18703.1 17088.1 22882.8 
21480.3 15216.1 29982 18703.1 13128.1 31390.6 19445.4 17469.8 23063.2 
18187.5 18119.3 20820.3 22859.1 19657.6 23647.6 24375 22093.8 22567.2 
19536.3 13754.5 30968 16125 12786.7 29585.9 23920.2 21362.9 22891.4 
23343.8 22752.7 20046.9 18876.1 13259 31427.8 16903.6 11781.2 33195.3 
28396.4 33281.5 24087.6 27498.7 31375 21851.6 22837.4 19795.7 23292.7 
20817.2 19257.8 21593.8 18282 13551 30076.5 17156.2 14167.6 27265.6 
17495.3 12224.6 32665 17929.7 11745.2 36289.1 21678.7 19685.5 21999.5 
20765.6 20660.3 19273.4 20913.4 20660.2 19423.9 20250 21774.1 16695.3 
18494.9 18139.4 21065 17957.5 19515.6 18242.2 15819 43841.5 50168.4 
18445.3 45296.9 52724.1 17076.3 44302.4 50936.6 19734.4 44327.5 50726.6 
15629.3 44363.7 50707.9 15609.4 44811.2 47117.2 19197.2 44244.1 50566.7 
21023.4 43779.9 49179.7 15687.9 44387.3 47688.7 15867.2 43808.8 45054.7 
19609.6 43826.6 47185.1 21281.2 42213.4 44796.9 20746.9 43735.9 49445.9 
22570.3 42570.2 48406.2 15602.2 43824 45549.3 14320.3 42802.3 43507.8 
20721.6 42554.5 45153 20507.8 41538 42734.4 14586.1 42889.3 43637.5 
13804.7 41945.3 41638.2 11564.9 41150.5 41581.9 9885.94 39882.8 40671.9 
23461.4 40582.7 43992.2 24404.9 39882.8 43507.8 20431.9 41636.2 42930.8 
19992.2 40727.4 40671.9 10194.9 40080.7 40628.8 8854.69 38851.6 38609.4 
16471.2 41750.8 40309.6 15093.8 41246.1 39382.8 19930.4 40971.1 40993 
18703.1 40715 38609.4 24185 40003.3 43463.5 25732.1 38593.8 41703.1 
7920.58 36670.6 43543.3 6843.75 35880.5 41960.9 24165.9 39239.9 40108 
25406.2 38453.5 39125 7112.39 36110.4 42117.8 6070.31 35547.4 39125 
25723.3 38627.6 41977.6 27468.8 37103.6 40671.9 7611.1 33885.4 44889.3 
7812.09 32664.1 46601.6 24934.9 38752.4 39498.5 24632.8 38678.3 37320.3 
7694.43 32741.2 46294.5 7359.38 30859.4 47710.2 21701 40263.9 35383.2 
19476.6 40715 34742.2 6782.39 33337.8 42694.7 6070.31 31117.2 42784.9 
29360.4 34381.3 43657.7 30595.5 33179.7 42218.8 20143.9 40579.6 34934.5 
19734.4 41171.9 32464.2 24642.2 38839.6 37547.5 24117.2 39687.9 34742.2 
6144.05 31355.8 42573 5223.66 28539.1 41445.3 25248.9 38577.2 39128.8 
26268.4 38078.1 37578.1 19628.4 41020.2 32980.9 18187.5 41230.7 31390.6 
5573.46 29609.4 41873.8 4726.59 29570.3 39898.4 26517.8 39600.6 32709.7 
24632.8 40211.8 32421.9 4950.79 29367.4 40445.4 4210.97 28023.4 38867.2 
28369.1 37087.6 37358.2 29015.6 37304.7 35345.5 18879.3 41140.4 31785.7 
18703.1 41232.7 29328.1 12469.8 40719.2 35012.7 10453.1 40198.4 33195.3 
10665.3 40165 33849.1 8906.25 39483.7 33453.1 11568.8 40978.9 40738.9 
11484.4 40516 37835.9 13881.2 41007 35400.9 13031.2 41224.5 32421.9 
5013.69 25870.8 42359.6 4586.34 24156.2 41703.1 18570.2 41269.8 29739 
17414.1 41676.2 27523.4 27830.8 38170.5 34706 28757.8 38147.2 32937.5 
14649.3 41261.7 27792.8 15093.8 41230.7 25460.9 5814.67 23110.6 47006.8 
5757.84 21578.1 47890.6 4331.11 28780.9 31682.9 4207.87 27250 29843.8 
31647.6 29901.6 35989.9 31851.6 28767 37835.9 4410.31 28241.9 38968.5 
4207.87 26992.2 36546.9 31075.5 35020.6 34609.6 31608.2 32921.9 32421.9 
5848.29 24407.6 46677.6 5760.94 23640.6 49695.3 4264.59 27954.2 30689.8 
4207.87 25703.1 31132.8 31640.5 30390.5 35852.8 31648.4 28539.1 34226.6 
[...]
CELL_DATA 1299
SCALARS radius float
LOOKUP_TABLE default
86.4222 100 86.4222 96.4176 89.6332 96.4176 86.4222 92.9635 74.6879 
92.9635 83.3262 89.6332 77.463 89.6332 77.463 89.6332 77.463 86.4222 
74.6879 86.4222 74.6879 83.3262 74.6879 83.3262 72.0123 83.3262 72.0123 
80.3411 66.9452 83.3262 74.6879 83.3262 74.6879 80.3411 66.9452 80.3411 
69.4326 74.6879 64.547 80.3411 72.0123 80.3411 66.9452 72.0123 62.2346 
77.463 69.4326 77.463 64.547 77.463 66.9452 72.0123 64.547 69.4326 
60.0051 80.3411 72.0123 80.3411 69.4326 77.463 66.9452 74.6879 66.9452 
72.0123 62.2346 77.463 64.547 74.6879 66.9452 74.6879 66.9452 74.6879 
64.547 72.0123 62.2346 74.6879 66.9452 72.0123 62.2346 74.6879 64.547 
72.0123 62.2346 72.0123 64.547 69.4326 64.547 72.0123 60.0051 72.0123 
62.2346 72.0123 66.9452 69.4326 57.8555 69.4326 62.2346 64.547 55.7829 
69.4326 57.8555 66.9452 62.2346 64.547 60.0051 66.9452 60.0051 69.4326 
62.2346 66.9452 57.8555 69.4326 64.547 64.547 57.8555 69.4326 62.2346 
74.6879 66.9452 66.9452 57.8555 66.9452 57.8555 62.2346 55.7829 69.4326 
60.0051 62.2346 53.7845 66.9452 60.0051 62.2346 53.7845 57.8555 51.8578 
66.9452 60.0051 60.0051 53.7845 66.9452 62.2346 62.2346 55.7829 60.0051 
51.8578 62.2346 55.7829 64.547 53.7845 60.0051 51.8578 62.2346 53.7845 
69.4326 62.2346 55.7829 48.2088 62.2346 53.7845 57.8555 53.7845 60.0051 
51.8578 60.0051 55.7829 57.8555 50 64.547 60.0051 62.2346 57.8555 
64.547 55.7829 53.7845 48.2088 66.9452 57.8555 60.0051 53.7845 66.9452 
62.2346 64.547 55.7829 64.547 55.7829 60.0051 55.7829 57.8555 53.7845 
53.7845 48.2088 60.0051 55.7829 62.2346 55.7829 57.8555 50 60.0051 
50 57.8555 50 55.7829 50 60.0051 55.7829 51.8578 50 
66.9452 60.0051 55.7829 51.8578 57.8555 50 55.7829 50 55.7829 
51.8578 57.8555 50 64.547 55.7829 62.2346 55.7829 57.8555 50 
55.7829 51.8578 55.7829 50 53.7845 50 53.7845 48.2088 62.2346 
57.8555 57.8555 50 51.8578 43.2111 60.0051 53.7845 51.8578 46.4818 
53.7845 48.2088 51.8578 43.2111 53.7845 48.2088 51.8578 48.2088 50 
44.8166 51.8578 46.4818 60.0051 53.7845 51.8578 44.8166 50 43.2111 
51.8578 46.4818 51.8578 44.8166 46.4818 43.2111 50 46.4818 46.4818 
43.2111 60.0051 53.7845 48.2088 44.8166 50 46.4818 50 43.2111 
48.2088 44.8166 48.2088 43.2111 46.4818 43.2111 48.2088 44.8166 46.4818 
41.6631 46.4818 41.6631 44.8166 38.7315 57.8555 50 46.4818 38.7315 
44.8166 40.1706 41.6631 40.1706 43.2111 37.344 40.1706 37.344 44.8166 
41.6631 89.6332 80.3411 86.4222 80.3411 92.9635 77.463 83.3262 74.6879 
83.3262 72.0123 89.6332 77.463 77.463 69.4326 80.3411 72.0123 83.3262 
72.0123 74.6879 66.9452 80.3411 69.4326 86.4222 74.6879 74.6879 66.9452 
77.463 66.9452 86.4222 80.3411 72.0123 64.547 83.3262 72.0123 80.3411 
69.4326 80.3411 72.0123 72.0123 64.547 77.463 72.0123 77.463 72.0123 
77.463 69.4326 74.6879 69.4326 77.463 72.0123 74.6879 64.547 77.463 
72.0123 74.6879 69.4326 72.0123 64.547 72.0123 66.9452 74.6879 69.4326 
72.0123 66.9452 69.4326 62.2346 64.547 60.0051 66.9452 62.2346 74.6879 
69.4326 69.4326 62.2346 69.4326 60.0051 64.547 62.2346 77.463 69.4326 
72.0123 66.9452 66.9452 62.2346 66.9452 57.8555 69.4326 62.2346 72.0123 
69.4326 62.2346 57.8555 74.6879 66.9452 66.9452 60.0051 64.547 60.0051 
66.9452 55.7829 64.547 60.0051 72.0123 66.9452 69.4326 62.2346 77.463 
72.0123 69.4326 62.2346 64.547 60.0051 66.9452 64.547 72.0123 62.2346 
69.4326 62.2346 74.6879 69.4326 72.0123 66.9452 62.2346 57.8555 64.547 
60.0051 66.9452 57.8555 69.4326 62.2346 69.4326 64.547 64.547 57.8555 
62.2346 57.8555 69.4326 64.547 66.9452 64.547 66.9452 60.0051 66.9452 
62.2346 60.0051 53.7845 62.2346 53.7845 57.8555 51.8578 60.0051 53.7845 
60.0051 53.7845 64.547 57.8555 62.2346 60.0051 66.9452 64.547 64.547 
57.8555 62.2346 57.8555 62.2346 57.8555 57.8555 53.7845 60.0051 57.8555 
57.8555 55.7829 57.8555 51.8578 60.0051 55.7829 55.7829 50 55.7829 
50 53.7845 50 60.0051 57.8555 55.7829 51.8578 53.7845 51.8578 
55.7829 53.7845 55.7829 51.8578 66.9452 62.2346 57.8555 55.7829 51.8578 
48.2088 57.8555 55.7829 53.7845 50 55.7829 53.7845 53.7845 50 
50 44.8166 60.0051 53.7845 55.7829 53.7845 57.8555 53.7845 57.8555 
51.8578 51.8578 50 51.8578 50 48.2088 46.4818 60.0051 57.8555 
64.547 57.8555 53.7845 50 55.7829 53.7845 48.2088 43.2111 53.7845 
51.8578 51.8578 50 46.4818 41.6631 50 48.2088 53.7845 50 
60.0051 57.8555 44.8166 41.6631 51.8578 48.2088 51.8578 50 57.8555 
53.7845 50 48.2088 55.7829 53.7845 55.7829 53.7845 50 46.4818 
48.2088 46.4818 51.8578 48.2088 46.4818 43.2111 57.8555 53.7845 44.8166 
43.2111 48.2088 46.4818 46.4818 44.8166 46.4818 44.8166 55.7829 51.8578 
48.2088 43.2111 53.7845 50 43.2111 41.6631 41.6631 37.344 53.7845 
51.8578 51.8578 50 44.8166 43.2111 41.6631 38.7315 38.7315 37.344 
38.7315 37.344 86.4222 80.3411 80.3411 72.0123 77.463 72.0123 74.6879 
72.0123 74.6879 72.0123 80.3411 74.6879 72.0123 69.4326 83.3262 74.6879 
72.0123 66.9452 69.4326 66.9452 77.463 74.6879 72.0123 69.4326 80.3411 
74.6879 66.9452 64.547 77.463 72.0123 69.4326 64.547 66.9452 62.2346 
77.463 72.0123 69.4326 62.2346 66.9452 62.2346 69.4326 64.547 80.3411 
77.463 72.0123 66.9452 74.6879 66.9452 69.4326 66.9452 69.4326 64.547 
66.9452 62.2346 77.463 72.0123 72.0123 66.9452 74.6879 69.4326 66.9452 
62.2346 72.0123 66.9452 69.4326 66.9452 74.6879 72.0123 64.547 60.0051 
69.4326 64.547 64.547 62.2346 72.0123 64.547 69.4326 66.9452 72.0123 
66.9452 64.547 62.2346 60.0051 55.7829 62.2346 60.0051 62.2346 57.8555 
64.547 62.2346 62.2346 60.0051 72.0123 69.4326 62.2346 57.8555 57.8555 
55.7829 66.9452 64.547 62.2346 60.0051 64.547 60.0051 62.2346 57.8555 
69.4326 62.2346 62.2346 57.8555 62.2346 57.8555 64.547 60.0051 64.547 
60.0051 62.2346 57.8555 60.0051 57.8555 62.2346 57.8555 62.2346 55.7829 
72.0123 66.9452 62.2346 57.8555 60.0051 55.7829 55.7829 53.7845 60.0051 
57.8555 60.0051 57.8555 60.0051 53.7845 57.8555 53.7845 53.7845 50 
55.7829 53.7845 64.547 62.2346 64.547 60.0051 55.7829 53.7845 55.7829 
51.8578 60.0051 55.7829 55.7829 53.7845 69.4326 66.9452 62.2346 57.8555 
53.7845 51.8578 53.7845 51.8578 53.7845 51.8578 53.7845 51.8578 60.0051 
55.7829 62.2346 60.0051 55.7829 53.7845 50 46.4818 64.547 60.0051 
57.8555 55.7829 57.8555 55.7829 64.547 60.0051 53.7845 51.8578 62.2346 
60.0051 62.2346 60.0051 55.7829 53.7845 57.8555 55.7829 51.8578 50 
48.2088 46.4818 55.7829 53.7845 60.0051 57.8555 55.7829 51.8578 55.7829 
53.7845 53.7845 50 50 48.2088 62.2346 60.0051 64.547 62.2346 
55.7829 53.7845 51.8578 50 50 48.2088 50 44.8166 57.8555 
53.7845 55.7829 53.7845 50 46.4818 51.8578 48.2088 48.2088 44.8166 
50 48.2088 44.8166 43.2111 48.2088 43.2111 44.8166 43.2111 46.4818 
44.8166 44.8166 43.2111 44.8166 41.6631 43.2111 41.6631 55.7829 53.7845 
57.8555 55.7829 44.8166 43.2111 44.8166 43.2111 50 48.2088 43.2111 
41.6631 40.1706 37.344 38.7315 37.344 41.6631 38.7315 40.1706 38.7315 
38.7315 37.344 89.6332 86.4222 83.3262 80.3411 80.3411 77.463 92.9635 
89.6332 74.6879 69.4326 77.463 72.0123 77.463 74.6879 80.3411 77.463 
77.463 72.0123 74.6879 72.0123 72.0123 69.4326 77.463 74.6879 69.4326 
66.9452 69.4326 64.547 66.9452 62.2346 83.3262 80.3411 64.547 62.2346 
77.463 74.6879 77.463 72.0123 74.6879 72.0123 74.6879 69.4326 74.6879 
69.4326 74.6879 66.9452 66.9452 64.547 69.4326 66.9452 69.4326 66.9452 
74.6879 66.9452 62.2346 60.0051 69.4326 66.9452 64.547 60.0051 72.0123 
66.9452 66.9452 62.2346 72.0123 69.4326 64.547 62.2346 66.9452 64.547 
69.4326 66.9452 64.547 62.2346 66.9452 64.547 66.9452 64.547 69.4326 
66.9452 69.4326 66.9452 66.9452 64.547 60.0051 57.8555 69.4326 64.547 
62.2346 60.0051 72.0123 69.4326 66.9452 64.547 69.4326 66.9452 64.547 
62.2346 62.2346 57.8555 69.4326 66.9452 69.4326 66.9452 66.9452 64.547 
64.547 57.8555 66.9452 62.2346 64.547 60.0051 66.9452 64.547 62.2346 
60.0051 69.4326 66.9452 64.547 62.2346 57.8555 55.7829 64.547 60.0051 
64.547 62.2346 55.7829 53.7845 60.0051 57.8555 57.8555 55.7829 57.8555 
55.7829 60.0051 55.7829 62.2346 60.0051 55.7829 53.7845 53.7845 50 
62.2346 60.0051 60.0051 55.7829 62.2346 60.0051 55.7829 53.7845 60.0051 
57.8555 60.0051 57.8555 57.8555 55.7829 57.8555 55.7829 60.0051 57.8555 
57.8555 55.7829 53.7845 51.8578 55.7829 53.7845 55.7829 53.7845 51.8578 
50 62.2346 57.8555 51.8578 50 50 48.2088 64.547 62.2346 
60.0051 57.8555 51.8578 50 60.0051 55.7829 57.8555 55.7829 57.8555 
55.7829 57.8555 55.7829 46.4818 44.8166 53.7845 51.8578 53.7845 51.8578 
57.8555 55.7829 51.8578 50 46.4818 44.8166 55.7829 53.7845 53.7845 
51.8578 57.8555 55.7829 51.8578 50 53.7845 51.8578 51.8578 50 
44.8166 43.2111 51.8578 48.2088 53.7845 51.8578 46.4818 44.8166 46.4818 
44.8166 43.2111 41.6631 43.2111 41.6631 50 48.2088 44.8166 43.2111 
48.2088 46.4818 50 48.2088 48.2088 46.4818 48.2088 46.4818 48.2088 
46.4818 48.2088 46.4818 46.4818 44.8166 44.8166 43.2111 55.7829 53.7845 
46.4818 44.8166 44.8166 43.2111 53.7845 51.8578 51.8578 50 55.7829 
53.7845 40.1706 38.7315 43.2111 41.6631 40.1706 38.7315 43.2111 41.6631 
57.8555 55.7829 40.1706 38.7315 43.2111 41.6631 83.3262 80.3411 74.6879 
72.0123 74.6879 72.0123 86.4222 83.3262 80.3411 77.463 72.0123 69.4326 
86.4222 83.3262 77.463 74.6879 74.6879 72.0123 69.4326 66.9452 80.3411 
77.463 74.6879 72.0123 74.6879 72.0123 64.547 62.2346 77.463 72.0123 
74.6879 72.0123 74.6879 72.0123 77.463 72.0123 66.9452 64.547 74.6879 
72.0123 72.0123 69.4326 72.0123 69.4326 72.0123 69.4326 69.4326 66.9452 
72.0123 66.9452 69.4326 66.9452 64.547 62.2346 69.4326 66.9452 64.547 
62.2346 69.4326 66.9452 72.0123 69.4326 64.547 62.2346 64.547 62.2346 
74.6879 72.0123 69.4326 66.9452 74.6879 72.0123 69.4326 66.9452 62.2346 
60.0051 62.2346 60.0051 74.6879 72.0123 64.547 62.2346 66.9452 64.547 
66.9452 64.547 60.0051 57.8555 60.0051 57.8555 66.9452 64.547 60.0051 
57.8555 66.9452 64.547 60.0051 57.8555 64.547 62.2346 64.547 62.2346 
66.9452 64.547 64.547 62.2346 62.2346 60.0051 64.547 62.2346 60.0051 
57.8555 66.9452 64.547 60.0051 57.8555 64.547 62.2346 60.0051 55.7829 
57.8555 55.7829 60.0051 57.8555 60.0051 57.8555 62.2346 60.0051 66.9452 
64.547 57.8555 55.7829 57.8555 55.7829 62.2346 57.8555 55.7829 53.7845 
51.8578 50 51.8578 50 60.0051 57.8555 57.8555 55.7829 60.0051 
57.8555 57.8555 55.7829 
