# vtk DataFile Version 4.1
vtk output
ASCII
DATASET POLYDATA
POINTS 1300 float
16125 47875 54078.1 15093.8 45355.7 51757.8 15403.1 46111.5 52453.9 
19476.6 43808.8 47117.2 15186.6 45582.4 51966.6 12000 42777.5 45054.7 
18196.3 44161.6 47872.3 18187.5 41887.6 42218.8 12548.2 42868.3 45414.2 
11226.6 40697.5 40414.1 19092.5 43914.6 47343.8 25664.1 39674.5 46085.9 
22641.1 41624.9 46664.6 24198.7 39109.4 39898.4 11940.3 41869.7 43114.1 
7340.81 36531.2 42734.4 17865 42409.4 43059.4 15867.2 41229.6 37320.3 
9973.2 39717.1 42056.1 6760.22 36789.1 36289.1 25252.1 39724.9 45989.5 
28551.6 36273.4 44281.2 8445.59 37287.5 42948.1 7146.94 32148.4 46343.8 
27561.7 37308.9 44793.7 28034.9 36789.1 39898.4 23478 39969 40901.7 
22054.7 40398.4 34016.2 7672.25 36758.1 42798.5 5448.47 31890.6 40929.7 
6969.15 36625.5 36951.3 4752.38 33695.3 33710.9 28338.5 36296.2 44289.9 
30635.7 32664.1 42476.6 16442.7 41548.3 38003.6 16125 41230.7 31132.8 
16039.8 41325.2 37525.3 11484.4 40707.8 35000 7406.09 33117 44866.5 
5751.66 26218.8 44281.2 5739.39 32192.6 40872.9 4581.19 28796.9 39125 
5309.25 33766.7 34170.4 4207.87 30601.6 31648.4 28305 36537.9 41214.7 
31147.2 33695.3 37062.5 28115.9 36713.7 40293.3 28045.2 38078.1 35000 
22654.5 40501.3 34690.4 22570.3 41256.4 28554.7 5990.29 27864.7 43979.7 
4265.62 24671.9 40998.8 16634.4 41394.4 31843.4 17671.9 41543.1 27781.2 
16277.8 41279.7 31346 12515.6 41171.9 28238.1 11783.6 40423.2 35100.8 
8648.44 39162 33195.3 5823.23 26712.5 44190.8 6128.06 22609.4 47890.6 
29946.6 33753.7 43020.5 30119.1 27507.8 44796.9 4593.36 31673.3 31917.5 
4207.87 30343.8 27265.6 16947.8 41447.3 28769.9 15093.8 41230.7 24687.5 
30429 32991 42639.8 31652.5 28539.1 39382.8 30450.6 33849.2 37822.6 
31652.5 29312.5 34484.4 22879.3 41212.1 28800.1 23601.6 41745.2 24171.9 
30938.2 33741.5 37290.5 31132.8 33695.3 31132.8 9159.94 39170.3 33421 
6255.94 36789.1 31132.8 4323.48 30923.1 31729.2 4207.87 24929.7 30617.2 
4321 26955.2 30428.9 4726.59 24414.1 26492.2 30846.9 34216.8 33035.4 
29577.7 37304.7 29328.1 12853.3 40878.4 28888.1 9421.88 40000.4 27007.8 
15702.6 41357.2 25284.4 15867.2 41716.4 21078.1 4354.42 30402.6 27362.6 
4217.16 29312.5 23398.4 4732.99 25208.4 26957.8 5554.69 25187.5 22225.9 
31205.7 29271.9 40348.4 30820.3 25187.5 39998.5 29788.9 27851.8 44514.9 
29087.8 23382.8 45312.5 31034.9 30374.7 34686.4 30820.3 27921.3 31390.6 
29958.4 36378.3 30440.3 27003.7 39882.8 30617.2 30280.7 35290.8 31075.6 
29531.2 35249.4 27007.8 28362.9 38270.8 30535.8 27474.9 39882.8 27523.4 
23552 41038.6 25728.9 25466.1 38335.9 21078.1 24345.9 39750.8 22904.4 
23343.8 40140.6 19838.6 7127.14 37503.4 31819.3 6843.75 37945.1 28812.5 
24836.7 38872.1 21538.6 24411.1 37820.3 18757.8 4438.05 25276.9 30485.1 
5440.22 20031.2 30359.4 15276.4 41268.6 24866.6 12000 40715 24687.5 
29176.3 24120.2 44808.4 28368 20031.2 43250 4728.55 24652.4 26631.9 
6473.53 20804.7 25718.8 23397.8 39999.2 20278.7 21796.9 39882.8 17069.7 
5664.1 24842.1 23468.7 8390.62 22668.2 19273.4 15937 41593.3 21269.1 
16304.4 41687.5 16953.1 4398.55 29606.8 23891.3 5248.41 29312.5 19273.4 
4426.09 30783.8 28729.1 4705.97 33179.7 26492.2 30671.7 25665.6 39790.2 
29015.6 20725.3 37835.9 29995.9 35275.1 29529.9 29605.5 30601.6 27007.8 
30101 23966.9 38628 29789.1 23060 35257.8 5045.35 29680.7 20339.8 
5437.12 31375 17984.4 25277.3 38496.8 21216.3 26467.4 34726.6 20304.7 
5187.46 29423 19593.3 6328.12 26168.2 19015.6 5430.63 20781.1 31055.6 
6300.28 17195.3 31906.2 28610.5 21257.9 43717.6 27468.8 18148.2 45828.1 
15810.4 41465.8 23437.4 12515.6 40512.9 21078.1 30541 28013.1 32012.1 
29577.7 25445.3 29843.8 6519.32 20972.8 25937.9 8132.81 18106.9 25718.8 
24261.1 37940.4 19070.2 23389.1 37046.9 16695.3 6487.25 20855.1 25784.5 
8648.44 20031.2 22235.2 24061.5 39825.4 22116.7 21281.2 42256.8 21335.9 
7983.9 23563.9 19677.5 10054 23382.8 15921.9 6942.65 37733.5 29076.8 
6792.19 37820.3 25460.9 5230.15 29345.6 19369.4 6760.22 29054.7 16179.7 
15927.4 41452.6 17721.4 14320.3 40191.2 14117.2 5514.88 31274.8 18349 
6274.5 33437.5 15921.9 29341.2 21697.8 38073.5 27022.2 19257.8 33453.1 
4640.9 32688 26663 4781.25 34288.3 23398.4 29113.3 21017 37907.2 
26953.1 18101.8 37835.9 6451.67 17620.9 31778.4 7834.78 14617.2 32421.9 
27687.9 18915.7 44872.9 26179.7 15855.7 44281.2 8606.57 20192.7 22686.1 
10968.8 19666.2 19789.1 29606.3 23152.2 35667.5 28690.8 22093.8 31906.2 
8936.16 23480.6 17949.9 8192.62 26218.8 15406.2 29506.4 25757.9 30068.3 
27210.9 22725.9 27265.6 6526.74 29364.4 16406.4 7674.94 29828.1 13343.8 
25830.1 35540.8 20179.8 24890.6 31117.2 17133.6 6257.38 32889.7 16207.2 
7617.19 33695.3 13278.8 23689 36925.7 17355.6 22852.9 33437.5 14117.2 
27038.4 18314.3 37997.4 25406.2 16362.1 38351.6 6145.39 18568.9 31561.6 
8906.25 15390.6 29120.8 27124.3 19619.3 33710.2 25664.1 18433.8 30875 
13632.7 40722.6 21362.5 12257.8 39628.1 17210.9 27722.4 23629.4 27697.5 
26437.5 23332.3 24945.3 7575.21 15174.3 32573 8648.44 12803.2 34742.2 
7056.6 37985.3 26076.3 8390.62 39166.1 22882.8 26301.4 16253.4 44759.3 
24890.6 13778.8 45312.5 7652.25 29535.3 13590.9 8906.25 29312.5 10726.4 
7771.98 38564.4 23711.8 7306.78 37820.3 20820.3 28435.7 22052.3 32323.4 
27276.9 21062.5 29585.9 6968.53 16495.4 32143.9 6300.28 15132.8 36546.9 
8305.14 16269.9 29484 9937.5 15541.2 27007.8 24698.6 31745.7 17308.8 
23399.4 29570.3 15148.4 27052.8 19366.3 33530.3 24422.4 16164.1 33453.1 
8882.53 13252.1 34336.8 10710.9 11696.7 35773.4 7357.31 33754.4 14438.8 
9937.5 36592.1 12570.3 8718.66 12937.9 34620.6 8390.62 12424.8 37578.1 
26823 23421.4 25771 26497.3 25960.9 22625 25756.9 18472.2 31568.3 
23510.8 16421.9 30359.4 8490.35 13828.8 33807.6 11453.4 11781.2 32937.5 
25006 14329.2 44902.4 22187.7 11523.4 43765.6 22910.3 33480.6 14461.3 
22341.4 30601.6 12570.3 23598 29789.7 15587.3 22312.5 26941.7 14117.2 
24184.6 17037 30722.1 22570.3 17195.3 27221.3 7363.19 37727.6 21110.7 
6843.75 36426.1 17726.6 8281 12617.6 37068.4 6974.72 12812.5 39640.6 
8357.73 12482.6 37425.2 9937.5 11205.8 39125 22393.7 11733.6 44182.8 
20507.8 9869.31 44281.2 26756.8 25433.1 23798.3 27536.8 28539.1 23140.6 
26456.2 25908.6 22696.4 25406.2 27208.8 19531.2 23212.4 28935.3 15146.3 
23343.8 25445.3 17160.4 22582.5 27539.7 14425.9 20846.1 26992.2 11539.1 
22393.5 27121.1 14209.8 20765.6 24623.4 13343.8 7278.22 36974.9 18586.2 
8648.44 37092.2 15406.2 9209.23 11474.5 38863.3 9587.91 9203.12 42476.6 
22942.5 17505.6 27520 22054.7 18484.4 24287.4 23713 16606.4 30468.2 
19992.2 14341.8 29585.9 21774.9 26172 13880.7 21539.1 23759.2 15921.9 
21018.3 27371.6 11741 19476.6 27721.3 8960.94 22682 17288.4 27310.9 
19992.2 15540.2 26750 22321 18190.7 25257.2 18960.9 16877.7 23656.2 
22134.6 18396.3 24578.3 22836.4 20289.1 22367.2 20744.1 14737.5 30076.8 
18187.5 12801.2 31390.6 20088.4 17691.4 23646.9 18187.5 17907.9 21335.9 
27433.3 28267 23423.3 28058.6 31117.2 23398.4 26420.9 23283.7 25071.5 
24694.7 22609.4 22367.2 18375.5 13070.6 31554.2 16382.8 11736.9 32937.5 
18243.9 12882 31439.7 16125 13252.8 29070.3 24652.3 22667.8 22510.7 
22570.3 22047.3 19789.1 26163.6 34809.9 20303.2 26983 31890.6 20820.3 
17458.9 12457.1 32190.5 17929.7 11753.4 35257.8 20131 15890.6 26857.3 
17414.1 14793.5 26492.2 23194.9 22233.5 20605.6 20765.6 19971.4 20304.7 
22564 22052.5 19880.6 20250 21405.9 17468.8 18700.7 18046.8 21635.1 
18187.5 19317.6 19015.6 15850.7 47204.9 53460.9 18187.5 44856.5 52273.4 
17872.8 45459.9 52220.3 19734.4 44327.5 50726.6 15121.6 45423.7 51820.4 
15867.2 44638.9 46859.4 19499.6 44536.5 50771.4 21023.4 43779.9 49179.7 
15399.5 44578.4 47509.8 14835.9 43750 44929.9 19361.3 43840.5 47185.1 
20765.6 42261.9 44796.9 20968.9 43727.5 49544.6 22570.3 42728 48664.1 
20574.9 42345 44839.8 21281.2 41369.9 43250 14944.1 43684.2 45068.5 
14578.1 42568.2 42476.6 12164.5 42804.8 45162.6 10069.5 40656.2 44023.4 
14397.5 42678.7 42800.7 13514.9 41687.5 40671.9 18090.8 42044.1 42471 
20134.5 40914.1 41187.5 11021.8 40780.7 40844.9 9679.69 39654.9 38867.2 
18734.9 41580.8 41764.3 18750.6 40914.1 39898.4 14292.8 42279.6 41855.6 
15351.6 41740.1 40156.2 23362.5 40759.3 44630.5 26179.7 38635 43250 
7966.16 36959.3 42855.3 7101.56 36922.1 40671.9 25350.4 39120.7 43114.3 
26437.5 37942 41187.5 18918.9 41050 40154.5 19992.2 40218 37062.5 
7161.69 36640.9 41081.8 6328.12 35875.4 39640.6 23978.3 39374.2 39996.9 
24426.6 38851.6 38093.8 6377.01 34621.3 41018.9 5554.69 33953.1 39524.1 
22426.6 40462.2 34434.2 19992.2 40714 35000 14464.7 41082.3 36019.8 
14062.5 41230.7 34226.6 7266.25 32157.3 46161.4 7499.62 30343.8 47890.6 
6059.9 33086.4 41203.4 6070.31 31117.2 42784.9 20647.4 40653.9 34585.4 
18586.6 40914.1 33453.1 6208.19 30307.8 43460 5261.81 29054.7 41960.9 
29200.4 35425.5 40222.9 30562.5 33777.8 40671.9 28295 36984.4 38368.8 
29531.2 36015.6 36755.2 5835.49 32460.7 40972 4781.25 31919.5 39125 
24479.3 38972.6 38840 26179.7 38111.1 37578.1 19204.8 40836 33792.8 
18960.9 41230.7 30875 27411.4 39399.2 30592.8 25406.2 39824 32937.5 
30277.6 33994.6 40478.4 31154.4 32148.4 40156.2 29341.8 36262.9 36909 
30562.5 35913.5 34742.2 27871.5 37803.6 36185.9 26179.7 38851.6 35048.5 
19091.7 41191.7 31011.1 19218.8 41429.7 28859.9 5013.59 31917.2 39298.9 
4407.94 30859.4 36804.7 27993.1 37995.7 35355.8 29531.2 37364.5 34226.6 
14006.8 41171.1 34438.5 13289.1 41229.6 32421.9 12616.9 41083.8 28433.1 
13289.1 41228.6 26750 27992.1 37996.9 35374.1 28359.8 38593.8 32937.5 
31051.4 32394.2 40030.5 32109.4 30343.8 38637.2 4847.25 29739.1 39034.7 
4207.87 28281.2 36804.7 31279.9 32297 35870.2 32133.1 31890.6 34742.2 
29189.4 37526.6 34314.9 30056.2 37304.7 32679.7 22663 41243.1 28628.3 
21796.9 41945.3 25594 13504.4 41212 33026.9 11226.6 40704.7 32421.9 
12090.5 40880 32321.1 10401.6 40398.4 29843.8 17526.7 41537.9 27838.5 
18445.3 41745.2 25718.8 4431.65 28502.8 37621.2 4207.87 26218.8 37062.5 
31531.8 28592.5 39426.9 31651.5 27507.8 37835.9 31629.7 31953.5 34992.7 
31645.3 30859.4 32421.9 18512.3 41717.3 26252.7 19734.4 41882.4 25203.1 
[...]
CELL_DATA 1299
SCALARS radius float
LOOKUP_TABLE default
86.4222 96.4176 83.3262 92.9635 83.3262 92.9635 83.3262 89.6332 77.463 
89.6332 80.3411 86.4222 72.0123 86.4222 72.0123 89.6332 77.463 83.3262 
74.6879 83.3262 74.6879 80.3411 64.547 80.3411 69.4326 80.3411 69.4326 
74.6879 60.0051 80.3411 72.0123 77.463 69.4326 86.4222 77.463 83.3262 
74.6879 74.6879 62.2346 62.2346 55.7829 77.463 66.9452 77.463 64.547 
74.6879 60.0051 77.463 66.9452 69.4326 62.2346 83.3262 74.6879 80.3411 
64.547 77.463 69.4326 66.9452 55.7829 74.6879 62.2346 74.6879 64.547 
80.3411 69.4326 72.0123 64.547 72.0123 60.0051 74.6879 62.2346 69.4326 
62.2346 74.6879 66.9452 72.0123 62.2346 69.4326 62.2346 66.9452 55.7829 
72.0123 64.547 74.6879 64.547 69.4326 62.2346 66.9452 57.8555 69.4326 
64.547 66.9452 55.7829 66.9452 57.8555 62.2346 53.7845 64.547 57.8555 
60.0051 51.8578 72.0123 57.8555 69.4326 60.0051 72.0123 66.9452 66.9452 
62.2346 64.547 57.8555 72.0123 66.9452 62.2346 53.7845 64.547 53.7845 
64.547 57.8555 62.2346 53.7845 66.9452 55.7829 66.9452 55.7829 72.0123 
64.547 66.9452 57.8555 62.2346 53.7845 64.547 57.8555 62.2346 55.7829 
64.547 57.8555 60.0051 57.8555 62.2346 55.7829 60.0051 55.7829 69.4326 
57.8555 64.547 55.7829 57.8555 48.2088 64.547 55.7829 55.7829 50 
66.9452 60.0051 60.0051 50 69.4326 57.8555 57.8555 50 60.0051 
55.7829 60.0051 55.7829 62.2346 53.7845 66.9452 60.0051 60.0051 53.7845 
57.8555 51.8578 57.8555 51.8578 51.8578 50 60.0051 53.7845 55.7829 
48.2088 60.0051 51.8578 53.7845 50 62.2346 57.8555 57.8555 48.2088 
62.2346 53.7845 55.7829 50 60.0051 50 57.8555 51.8578 62.2346 
57.8555 57.8555 51.8578 53.7845 46.4818 62.2346 55.7829 53.7845 48.2088 
51.8578 48.2088 60.0051 53.7845 55.7829 50 55.7829 48.2088 53.7845 
48.2088 60.0051 51.8578 55.7829 51.8578 50 43.2111 53.7845 48.2088 
48.2088 43.2111 55.7829 48.2088 55.7829 50 51.8578 50 51.8578 
46.4818 55.7829 51.8578 55.7829 48.2088 53.7845 46.4818 55.7829 44.8166 
46.4818 41.6631 44.8166 41.6631 48.2088 44.8166 53.7845 46.4818 50 
43.2111 53.7845 50 51.8578 44.8166 50 46.4818 50 44.8166 
43.2111 40.1706 50 43.2111 51.8578 44.8166 48.2088 46.4818 50 
48.2088 48.2088 43.2111 46.4818 41.6631 44.8166 38.7315 48.2088 43.2111 
44.8166 41.6631 48.2088 44.8166 53.7845 48.2088 46.4818 40.1706 44.8166 
41.6631 50 44.8166 60.0051 53.7845 44.8166 41.6631 44.8166 40.1706 
48.2088 44.8166 46.4818 40.1706 43.2111 38.7315 100 89.6332 92.9635 
83.3262 89.6332 69.4326 86.4222 77.463 77.463 69.4326 86.4222 74.6879 
83.3262 74.6879 80.3411 72.0123 74.6879 64.547 86.4222 77.463 66.9452 
57.8555 86.4222 77.463 80.3411 72.0123 83.3262 72.0123 64.547 60.0051 
83.3262 72.0123 77.463 69.4326 77.463 72.0123 77.463 72.0123 74.6879 
66.9452 77.463 69.4326 69.4326 64.547 74.6879 69.4326 80.3411 69.4326 
66.9452 62.2346 66.9452 64.547 72.0123 64.547 72.0123 64.547 74.6879 
64.547 69.4326 62.2346 64.547 60.0051 74.6879 66.9452 69.4326 60.0051 
57.8555 53.7845 66.9452 62.2346 66.9452 57.8555 66.9452 64.547 64.547 
57.8555 62.2346 57.8555 62.2346 57.8555 72.0123 64.547 69.4326 66.9452 
64.547 60.0051 64.547 62.2346 60.0051 55.7829 69.4326 62.2346 60.0051 
55.7829 72.0123 69.4326 66.9452 60.0051 64.547 60.0051 77.463 69.4326 
57.8555 53.7845 66.9452 57.8555 64.547 60.0051 74.6879 69.4326 66.9452 
57.8555 62.2346 57.8555 60.0051 55.7829 55.7829 51.8578 69.4326 62.2346 
62.2346 57.8555 60.0051 55.7829 62.2346 57.8555 66.9452 60.0051 72.0123 
66.9452 62.2346 57.8555 69.4326 64.547 66.9452 60.0051 62.2346 57.8555 
60.0051 53.7845 57.8555 53.7845 60.0051 55.7829 60.0051 55.7829 55.7829 
50 60.0051 51.8578 66.9452 62.2346 64.547 55.7829 57.8555 53.7845 
60.0051 53.7845 62.2346 57.8555 60.0051 55.7829 53.7845 51.8578 55.7829 
51.8578 57.8555 55.7829 57.8555 48.2088 53.7845 50 53.7845 51.8578 
57.8555 51.8578 60.0051 57.8555 57.8555 53.7845 55.7829 51.8578 55.7829 
51.8578 60.0051 57.8555 53.7845 50 51.8578 50 55.7829 53.7845 
57.8555 51.8578 53.7845 51.8578 62.2346 57.8555 53.7845 50 60.0051 
55.7829 53.7845 51.8578 51.8578 50 60.0051 55.7829 55.7829 51.8578 
60.0051 57.8555 69.4326 64.547 55.7829 53.7845 64.547 60.0051 60.0051 
55.7829 51.8578 50 62.2346 60.0051 51.8578 46.4818 57.8555 55.7829 
51.8578 50 53.7845 48.2088 51.8578 48.2088 57.8555 53.7845 60.0051 
53.7845 50 48.2088 51.8578 50 51.8578 50 50 48.2088 
55.7829 51.8578 53.7845 51.8578 57.8555 53.7845 55.7829 51.8578 50 
46.4818 51.8578 50 57.8555 53.7845 53.7845 50 51.8578 50 
44.8166 43.2111 55.7829 51.8578 41.6631 38.7315 40.1706 38.7315 50 
44.8166 48.2088 46.4818 46.4818 43.2111 48.2088 46.4818 55.7829 51.8578 
43.2111 41.6631 43.2111 41.6631 46.4818 43.2111 55.7829 53.7845 46.4818 
43.2111 51.8578 48.2088 57.8555 53.7845 44.8166 43.2111 41.6631 40.1706 
96.4176 92.9635 89.6332 86.4222 72.0123 66.9452 69.4326 62.2346 83.3262 
77.463 77.463 72.0123 77.463 74.6879 74.6879 69.4326 80.3411 77.463 
62.2346 60.0051 83.3262 74.6879 74.6879 72.0123 77.463 74.6879 74.6879 
72.0123 80.3411 74.6879 74.6879 72.0123 77.463 72.0123 77.463 74.6879 
72.0123 69.4326 72.0123 66.9452 77.463 72.0123 74.6879 69.4326 69.4326 
66.9452 72.0123 69.4326 69.4326 64.547 64.547 60.0051 66.9452 62.2346 
62.2346 60.0051 66.9452 64.547 72.0123 69.4326 80.3411 77.463 55.7829 
51.8578 77.463 72.0123 74.6879 64.547 64.547 62.2346 66.9452 62.2346 
64.547 60.0051 69.4326 64.547 72.0123 69.4326 62.2346 60.0051 74.6879 
69.4326 64.547 62.2346 72.0123 66.9452 62.2346 60.0051 60.0051 57.8555 
64.547 62.2346 64.547 62.2346 69.4326 64.547 57.8555 51.8578 55.7829 
53.7845 64.547 60.0051 64.547 62.2346 66.9452 62.2346 62.2346 60.0051 
64.547 60.0051 62.2346 57.8555 60.0051 53.7845 55.7829 51.8578 64.547 
62.2346 69.4326 66.9452 64.547 62.2346 72.0123 69.4326 69.4326 66.9452 
53.7845 51.8578 62.2346 57.8555 62.2346 60.0051 57.8555 53.7845 64.547 
62.2346 60.0051 57.8555 57.8555 51.8578 55.7829 51.8578 62.2346 60.0051 
66.9452 64.547 60.0051 55.7829 62.2346 60.0051 51.8578 50 57.8555 
55.7829 62.2346 60.0051 53.7845 51.8578 55.7829 51.8578 57.8555 53.7845 
53.7845 51.8578 60.0051 57.8555 57.8555 55.7829 66.9452 62.2346 62.2346 
60.0051 57.8555 55.7829 53.7845 50 51.8578 50 60.0051 57.8555 
57.8555 53.7845 51.8578 50 55.7829 51.8578 66.9452 62.2346 53.7845 
51.8578 57.8555 55.7829 64.547 62.2346 53.7845 51.8578 53.7845 51.8578 
55.7829 53.7845 51.8578 50 51.8578 48.2088 51.8578 48.2088 57.8555 
55.7829 72.0123 69.4326 50 48.2088 50 48.2088 48.2088 46.4818 
53.7845 51.8578 50 48.2088 53.7845 50 55.7829 53.7845 46.4818 
44.8166 48.2088 44.8166 48.2088 46.4818 51.8578 48.2088 51.8578 50 
48.2088 44.8166 48.2088 46.4818 46.4818 44.8166 43.2111 40.1706 48.2088 
46.4818 46.4818 44.8166 44.8166 43.2111 46.4818 44.8166 44.8166 43.2111 
46.4818 44.8166 41.6631 40.1706 43.2111 40.1706 40.1706 37.344 46.4818 
44.8166 50 44.8166 46.4818 44.8166 48.2088 46.4818 43.2111 41.6631 
41.6631 40.1706 40.1706 38.7315 83.3262 80.3411 80.3411 77.463 72.0123 
69.4326 80.3411 77.463 64.547 62.2346 80.3411 77.463 69.4326 64.547 
80.3411 77.463 72.0123 69.4326 80.3411 74.6879 62.2346 60.0051 80.3411 
77.463 74.6879 69.4326 77.463 72.0123 72.0123 69.4326 74.6879 66.9452 
72.0123 66.9452 69.4326 64.547 77.463 74.6879 69.4326 64.547 66.9452 
64.547 72.0123 66.9452 74.6879 72.0123 72.0123 69.4326 69.4326 66.9452 
66.9452 64.547 62.2346 57.8555 64.547 62.2346 66.9452 62.2346 64.547 
62.2346 66.9452 64.547 64.547 62.2346 69.4326 66.9452 62.2346 60.0051 
60.0051 57.8555 62.2346 60.0051 62.2346 57.8555 66.9452 64.547 66.9452 
62.2346 66.9452 62.2346 66.9452 64.547 69.4326 64.547 66.9452 62.2346 
60.0051 55.7829 57.8555 55.7829 57.8555 55.7829 64.547 60.0051 69.4326 
66.9452 60.0051 57.8555 66.9452 64.547 64.547 62.2346 62.2346 60.0051 
62.2346 60.0051 53.7845 50 57.8555 55.7829 60.0051 57.8555 72.0123 
66.9452 64.547 62.2346 60.0051 55.7829 57.8555 55.7829 60.0051 57.8555 
57.8555 55.7829 62.2346 60.0051 60.0051 57.8555 60.0051 57.8555 62.2346 
57.8555 64.547 62.2346 53.7845 51.8578 53.7845 50 57.8555 53.7845 
53.7845 51.8578 51.8578 50 57.8555 55.7829 55.7829 53.7845 51.8578 
50 55.7829 53.7845 55.7829 53.7845 66.9452 64.547 55.7829 53.7845 
55.7829 53.7845 50 46.4818 50 48.2088 48.2088 46.4818 53.7845 
50 50 48.2088 55.7829 53.7845 57.8555 55.7829 51.8578 50 
50 48.2088 53.7845 51.8578 60.0051 55.7829 55.7829 53.7845 57.8555 
55.7829 53.7845 51.8578 57.8555 55.7829 50 48.2088 57.8555 55.7829 
53.7845 51.8578 50 48.2088 53.7845 51.8578 62.2346 60.0051 50 
48.2088 64.547 62.2346 53.7845 51.8578 51.8578 50 50 48.2088 
51.8578 50 50 48.2088 51.8578 50 55.7829 53.7845 44.8166 
43.2111 53.7845 51.8578 50 48.2088 46.4818 44.8166 53.7845 51.8578 
46.4818 44.8166 51.8578 50 48.2088 46.4818 41.6631 40.1706 50 
46.4818 51.8578 50 46.4818 43.2111 48.2088 46.4818 44.8166 43.2111 
46.4818 44.8166 53.7845 51.8578 41.6631 40.1706 38.7315 37.344 44.8166 
43.2111 43.2111 41.6631 44.8166 43.2111 41.6631 40.1706 43.2111 41.6631 
41.6631 40.1706 43.2111 40.1706 41.6631 40.1706 86.4222 83.3262 74.6879 
69.4326 72.0123 69.4326 80.3411 77.463 72.0123 66.9452 66.9452 64.547 
69.4326 66.9452 66.9452 64.547 77.463 74.6879 74.6879 72.0123 83.3262 
80.3411 60.0051 55.7829 72.0123 69.4326 57.8555 55.7829 77.463 74.6879 
74.6879 72.0123 72.0123 69.4326 72.0123 69.4326 69.4326 66.9452 74.6879 
72.0123 69.4326 66.9452 72.0123 69.4326 64.547 60.0051 74.6879 72.0123 
69.4326 66.9452 62.2346 60.0051 69.4326 66.9452 60.0051 57.8555 66.9452 
64.547 64.547 62.2346 64.547 62.2346 62.2346 60.0051 69.4326 66.9452 
60.0051 57.8555 53.7845 51.8578 57.8555 55.7829 72.0123 69.4326 60.0051 
57.8555 72.0123 69.4326 74.6879 72.0123 77.463 74.6879 69.4326 64.547 
66.9452 64.547 64.547 62.2346 64.547 62.2346 64.547 62.2346 55.7829 
53.7845 64.547 62.2346 64.547 62.2346 66.9452 64.547 53.7845 51.8578 
57.8555 55.7829 51.8578 50 62.2346 60.0051 57.8555 55.7829 69.4326 
66.9452 57.8555 55.7829 57.8555 55.7829 64.547 60.0051 62.2346 60.0051 
55.7829 53.7845 55.7829 53.7845 57.8555 55.7829 60.0051 57.8555 60.0051 
57.8555 53.7845 51.8578 64.547 60.0051 57.8555 55.7829 55.7829 53.7845 
51.8578 50 55.7829 53.7845 57.8555 55.7829 55.7829 53.7845 62.2346 
60.0051 64.547 62.2346 
