# vtk DataFile Version 4.1
vtk output
ASCII
DATASET POLYDATA
POINTS 1300 float
16125 47875 54078.1 15093.8 45358.8 52015.6 15403.1 46113.6 52634.4 
19734.4 43794.3 47117.2 15186.6 45585.2 52201.2 12000 42777.5 45054.7 
17894.5 44383.3 48326.3 17420.3 42203.1 41960.9 12548.2 42869 45470.5 
11226.6 40697.5 40414.1 17676.3 43380.4 45398.2 23859.4 39672.4 41960.9 
12151.7 42217.6 43953.5 8132.81 37627.5 43507.8 11081.1 40844.4 41364.2 
7875 37946.1 38351.6 22180.8 40747 43669.3 27327.5 38078.1 45570.3 
22684.4 40424.6 43156.8 21023.4 40197.3 37062.5 11182.9 40741.5 40699.1 
15093.8 41230.7 36031.2 8985.66 38027.5 43808.6 6473.53 31632.8 44796.9 
23815.8 39657.9 42377.8 28500 36398.2 39898.4 8451.88 38435.1 38587.4 
5812.5 35849.6 34226.6 7422.07 34787.5 43239.7 5554.69 31937 40929.7 
27157.2 37052.4 41127.2 30619.2 32921.9 42476.6 21627.1 40454.6 37568.9 
21281.2 40856.3 31906.2 21385 40735.8 33605 16125 41230.7 30617.2 
6752.79 32195.2 43989.5 5554.69 25960.9 43813.1 24818.2 38876.2 42002.6 
26228.2 38593.8 36289.1 6300.49 35849.1 35151.3 4207.87 30859.4 32421.9 
9661.33 39543.3 39864.7 10195.3 40170.5 35000 5870.87 32086.6 41300.7 
4212 27507.8 39125 28248.3 36291.2 40128 31593.8 33250.8 37062.5 
21514.6 40918.7 32195.1 22570.3 41741.1 27781.2 4835.7 32356.3 33240.7 
4207.87 31890.6 28554.7 17112.1 41096.2 31712.7 13031.2 41224.5 32679.7 
26660.7 38661 36887.1 28500 38505.1 32679.7 29683.3 33315.2 42328.8 
30611 27765.6 44023.4 16421.1 41190.3 30945.8 16640.6 41244.1 27007.8 
9719.19 39816.5 35844.3 7824.47 38851.6 31648.4 6046.18 27601.5 44501.5 
6070.31 22093.8 48289.7 4528.08 31045.3 32622.9 4207.87 26734.4 30875 
30263.6 33071.4 42420.4 31652.5 28539.1 39382.8 30698.7 33520.4 37529.2 
31652.5 29312.5 34484.4 8392.89 39141 32907.2 10453.1 40516 28554.7 
4364.11 28094.6 30873.2 4523.44 25673.2 26492.2 27948.2 38551.9 33941.9 
31148.3 34726.6 32937.5 22750.8 41390.7 28183.1 24421.4 41429.7 24171.9 
16314.3 41346.8 27283.6 15788.8 41687.5 22367.2 4408.76 31750.9 28827 
4207.87 30859.4 24171.9 30011.8 28314.3 43627.2 29531.2 23382.8 44545.2 
28334.5 38519.1 33058.4 29602.4 36273.4 28812.5 4319.25 26903.5 30802 
4523.44 23764.4 30359.4 4816.31 26167.7 26739.1 5751.66 24671.9 22367.2 
30923.6 28978.8 40354.9 30636.8 24929.7 39382.8 31114.3 30269.5 34592.5 
30820.3 27921.3 31390.6 24110.7 41094.3 24894 25423.8 39109.4 21593.8 
28218.6 38528.9 33323.4 26759.2 40140.6 30875 27369.3 39542.6 31262.7 
27468.8 39898.3 27523.4 24924.8 39863.6 22847.8 22700.2 40398.4 19015.6 
28886.8 36562.9 29065.9 29015.6 34984.4 25675.4 16123.3 41586.5 22641.1 
16382.8 41716.4 17726.6 7931.61 38849.1 31756.6 6843.75 37945.1 28554.7 
4611.3 25821.6 26566.3 6270.37 20804.7 26234.4 10227 40131.8 28792.5 
12000 40715 24429.7 4686.37 23974.7 30608.6 5396.91 20031.2 30617.2 
5649.36 24782.5 23861.3 7359.38 21722.5 22109.4 6905.21 22861.8 22397.7 
8390.62 22210.3 19789.1 5720.92 24705.1 22815.4 5752.69 26218.8 20562.5 
25274.1 39335.6 21970 26437.5 36015.6 20746.1 4362.15 31172.3 24779.1 
4922.53 31375 19531.2 29446.8 24729.3 44836.7 27726.6 20671.7 48921.9 
30487.3 25434.3 39500.9 29015.6 20725.3 38351.6 28946.1 35836.8 27506.3 
29904.6 30601.6 27265.6 29457.1 22138 38696.3 29015.6 21231.6 35257.8 
23249.2 39929.2 19617.2 22331.1 38078.1 15921.9 29254 21488.1 38537.7 
27858.6 19000 41703.1 6364.84 21286.9 26169.7 8029.69 18226.6 25718.8 
28567.8 22387.8 46405.3 27468.8 18148.2 45828.1 5502.4 20418.8 30903.2 
6585.94 16908.6 31648.4 30677.2 28143.9 32403 29063.1 23640.6 30617.2 
8199.02 22478.2 20060.3 9886.97 22867.2 16695.3 26010.3 36284 20797.6 
26241.6 33179.7 19531.2 5743.2 25764.6 21238.4 7341.84 25187.5 17984.4 
24422.1 39883.3 21878.6 21281.2 42256.8 21335.9 5116.82 30804.8 20416.5 
6256.97 29570.3 16695.3 7101.36 38142.9 28913.9 6585.94 37614.1 24945.3 
4980.8 31203.9 19796.8 5812.5 32921.9 16632.4 22606.5 38633.5 17030.5 
24049.1 34468.8 16437.5 16007 41460.7 18548.2 14198.6 40140.6 14117.2 
29087.1 20954.1 38407.5 27210.9 18432.8 37835.9 11432.6 40384.6 24815.2 
12000 40201.5 20820.3 28887.2 21200.3 36280.8 26994.4 18742.2 33968.8 
4440.84 31855.3 26218.1 4781.25 34273.8 22625 27459.5 18863 45579.7 
26179.7 15855.7 44281.2 7396.6 22013.5 22315.6 9539.44 19000 22367.2 
30777.4 27988.1 31694.3 29273.4 26689 28039.1 9474.36 23030.7 17206.8 
10195.3 24785.3 13859.4 29526.7 26680.8 29137.9 27322.3 23382.8 26750 
6473.84 17454 31736 7875 14034.5 33710.9 26309.4 36096.1 20761.5 
27984.4 33953.1 22817.8 6345.14 29373.7 17308.6 7875 27457.3 14632.8 
11901.7 40084 20912.8 12135.1 39625 17726.6 6804.15 28798.8 16505.9 
7357.31 30601.6 13085.9 25968.6 33693 19512.2 24738 30859.4 16953.1 
7280.69 30512 14174.6 8192.62 34468.8 12312.5 23337.2 35709.8 16277 
22570.3 32921.9 13808.8 6552.32 17072.2 31674.7 9164.06 15339.1 28812.5 
27239.5 18718.3 38136.8 24632.8 15850.6 38093.8 7904.29 16004.4 30561 
9679.69 13777.8 30875 27510 19638.6 34272.7 25945.6 19000 30359.4 
7486.73 28178.5 15149.5 8390.62 28488.5 12570.3 7011.02 38008.5 25937.3 
8333.91 39109.4 22109.4 26968 19010.6 33931.5 24632.8 16881.8 32421.9 
7230.47 15607.5 32802.5 6328.12 15124.6 36289.1 28861.5 24060 30593.7 
27468.8 21529.7 29328.1 7958.63 14269.7 33609.5 10083.9 11781.2 35257.8 
26236.5 16310.1 44523.6 24117.2 13301.3 43507.8 26646.2 17087.8 45268.6 
25406.2 14024.2 46601.6 27723.9 24309.4 26961.6 25939.4 23640.6 23656.2 
24702.4 31260.8 17194.5 23204.5 29054.7 14890.6 7859.22 38631.7 22782 
7494.47 37820.3 19531.2 25826.8 18843.4 31034.1 23733.6 17710.9 28296.9 
8281.52 33761.4 12851.3 10586.2 37046.9 12570.3 6644 15023.5 35672.5 
6843.75 13471.5 38609.4 26903 24001.7 25441.1 26953.1 26694.2 22625 
24253.4 13694.1 44049.4 22181.5 11265.6 44281.2 22642.3 32941.3 13982.2 
22170.2 30601.6 12312.5 5563.04 32406.5 17581.7 6328.12 35529.9 17468.8 
6783.83 13937.1 37728.3 9374.44 11523.4 38867.2 23415.8 29253.3 15332.2 
21824.7 26218.8 13601.6 23911.2 18082.7 28335.1 22312.5 17598.5 25976.6 
23786.9 17822.5 28308.4 21796.9 16039.3 28296.9 26759.1 26066.8 23024.4 
25664.1 27405.7 20046.9 23801.8 29855.6 15890.9 23343.8 25911.4 16695.3 
22081 31088.9 12402.4 20622.3 29570.3 9734.38 7826.74 38011.6 19903.6 
9164.06 37622.3 15921.9 8438.27 12114.2 38901.7 9164.06 9709.47 41960.9 
29314.6 26871 28253.4 28500 28023.4 24939.1 21059.9 30025.9 10534.7 
19992.2 26992.2 10201.5 22836 17955 26477.2 22054.7 18934 23656.2 
22305.5 26940 14460 21281.2 23784 15406.2 22469.5 17705.5 26126.8 
20105.6 15906.2 26234.4 22132.4 16319.9 28606.1 19218.8 13585.9 30476.9 
22351.6 18562 24728.2 19218.8 17255.1 23140.6 29195.2 32538.6 26488.4 
29060 30601.6 25203.1 22143.8 18822.4 23977.8 23343.8 21193.5 22109.4 
20134.8 17848.5 23331.2 17929.7 18226.6 20532.6 19340.5 13868.2 30500.3 
17156.2 12250.5 32164.1 26159.7 33333.7 19525.5 27468.8 30601.6 21844.3 
19255.3 13670.6 30484 16640.6 13309.6 28812.5 23248.5 21106.4 22274.2 
24375 23592.2 20562.5 17811.5 12735.8 31665 17929.7 11779.2 34742.2 
23315.2 21167.3 22158.8 22054.7 21526.6 19789.1 20180.6 16137.6 26344.3 
17671.9 14676 26750 22432.8 21418.8 20500 20507.8 20181.8 19531.2 
21248.1 24163.6 15536.6 19992.2 21532.8 16953.1 19844.6 21882 16788.6 
18029.7 19773.4 17984.4 15900 44072.4 50114.2 18445.3 45325.8 52789.1 
17124 44446.2 50958.3 19734.4 44325.4 50984.4 15552.5 44826.3 50592.1 
15609.4 44811.2 47117.2 19221.5 44277.5 50760.8 21104.9 43750 49437.5 
15446.8 44535.9 47651.7 15093.8 43810.8 45054.7 20840.3 43636.7 49572.2 
22312.5 42742.5 48406.2 21607.3 43103 48655 21796.9 42571.3 46601.6 
17931.4 42825.8 44061.2 19992.2 41689.6 42476.6 17737.2 42589.2 43263.1 
15093.8 42743.5 42476.6 21709.7 42815.9 47546.1 24375 40973.9 46601.6 
15590.9 42562.4 42508.4 13546.9 41747.3 41187.5 17530.3 42202.5 42127.9 
17414.1 41233.8 39898.4 8525.1 37811.5 43646.2 8014.22 38078.1 41960.9 
17486.1 41834.4 41280.7 19476.6 40739.8 40414.1 23846.3 39668.1 42086 
23343.8 39367.2 39282.8 13869.3 41059.2 37953.7 16125 41228.6 38093.8 
8065.27 37823 42370.3 7101.56 36922.1 40671.9 21204.5 40274.5 37214.4 
19218.8 40708.8 37578.1 26348.4 38299.9 44681 28242.2 36582.8 44023.4 
7193.35 37030.8 40710 6328.12 36280.7 38867.2 23807.8 39319.1 39846.9 
24426.6 38851.6 38093.8 6933.78 36805.7 40157.2 5760.94 34468.8 40156.2 
8016.18 36018.7 43455.9 7817.25 33179.7 46601.6 18603.3 41019.4 33252.1 
16898.4 41230.7 33710.9 7682.67 33136.8 46154.1 7359.38 31117.2 47708.1 
26357.9 38614 36468.5 24117.2 39475.5 36031.2 28424.5 36366.1 39967.3 
28500 36407.5 38093.8 6175.5 30069 43690.2 5296.88 28539.1 42481.7 
7462.81 31258.1 47631.8 7359.38 29312.5 49211.7 29260.8 35143.6 39430.4 
30754.3 33437.5 40156.2 24789.4 39217 36162.4 24258.5 39882.8 33968.8 
10052.5 40064.3 35253.3 12773.4 40731.5 35257.8 5649.56 31981.9 41041 
4781.25 32148.4 38898.1 29831.3 34719.1 38490.3 30562.5 35242.2 36381.9 
5702.16 26453.1 44019.6 4729.69 26218.8 41703.1 28515.7 36492.2 38310.8 
28757.8 37092.2 36031.2 17798.1 41060.8 32420.8 18703.1 41230.7 29585.9 
24287.3 39961.3 34051.5 23859.4 40656.2 32233.2 16062.1 41238.2 29550.1 
14062.5 41230.7 28039.1 12203.8 40862.3 39655.9 11484.4 40516 37320.3 
5005.03 26048.1 42421.1 4265.62 24414.1 41040 5218.6 32329.5 39706.9 
5238.09 33953.1 38093.8 4924.8 29729.3 39771.8 4207.87 29312.5 37062.5 
14255.5 41186 32389.6 12515.6 41224.5 30359.4 31325.2 33331.7 37202.5 
31645.3 33953.1 35000 30306.2 33949.3 39938.4 31959.8 30601.6 38609.4 
24478.1 39678.5 34853.6 25921.9 39625 33514 22624.5 41636 27901.8 
20765.6 41745.2 27007.8 16019.7 41395.2 25666.7 14578.1 41230.7 24687.5 
4422.89 29437.6 37875.3 4207.87 26992.2 36804.7 21918.1 41677.5 27562.1 
21796.9 42247.5 24945.3 31508.7 33469.4 35730.5 31652.5 32406.2 33453.1 
20788 41727 27049.2 18703.1 41745.2 26234.4 31540.9 32729.4 33707.1 
31132.8 32664.1 30875 31280.2 28582.8 39553.7 31648.4 27250 37062.5 
5958.94 35849.4 34504 6070.31 36581.8 31648.4 4393.5 27660.1 28165 
4207.87 28023.4 26492.2 31619 32503.2 33529.3 31608.2 30343.8 32421.9 
21833.2 42076.5 25730.3 19734.4 42257.8 24171.9 5910.06 36079.3 32840.2 
[...]
CELL_DATA 1299
SCALARS radius float
LOOKUP_TABLE default
86.4222 100 83.3262 96.4176 86.4222 96.4176 80.3411 92.9635 77.463 
92.9635 77.463 89.6332 74.6879 86.4222 77.463 89.6332 77.463 86.4222 
74.6879 83.3262 69.4326 86.4222 69.4326 83.3262 69.4326 80.3411 69.4326 
80.3411 72.0123 77.463 69.4326 83.3262 72.0123 80.3411 64.547 77.463 
64.547 80.3411 69.4326 77.463 69.4326 83.3262 72.0123 77.463 69.4326 
74.6879 60.0051 77.463 69.4326 74.6879 64.547 72.0123 66.9452 74.6879 
62.2346 74.6879 64.547 69.4326 62.2346 80.3411 69.4326 69.4326 62.2346 
72.0123 64.547 72.0123 60.0051 66.9452 60.0051 77.463 64.547 69.4326 
57.8555 72.0123 64.547 74.6879 69.4326 64.547 53.7845 69.4326 60.0051 
66.9452 57.8555 66.9452 57.8555 66.9452 57.8555 62.2346 53.7845 69.4326 
62.2346 64.547 57.8555 72.0123 62.2346 69.4326 60.0051 66.9452 60.0051 
69.4326 57.8555 62.2346 51.8578 57.8555 53.7845 74.6879 69.4326 60.0051 
48.2088 69.4326 57.8555 64.547 57.8555 60.0051 53.7845 57.8555 51.8578 
57.8555 53.7845 66.9452 60.0051 64.547 55.7829 62.2346 51.8578 66.9452 
55.7829 60.0051 51.8578 64.547 55.7829 64.547 57.8555 62.2346 55.7829 
50 43.2111 57.8555 50 62.2346 53.7845 62.2346 55.7829 55.7829 
50 64.547 55.7829 55.7829 48.2088 66.9452 60.0051 60.0051 53.7845 
72.0123 64.547 57.8555 50 62.2346 57.8555 55.7829 50 60.0051 
51.8578 64.547 55.7829 62.2346 55.7829 66.9452 62.2346 53.7845 46.4818 
55.7829 50 60.0051 53.7845 53.7845 50 57.8555 50 57.8555 
48.2088 62.2346 57.8555 57.8555 46.4818 60.0051 53.7845 53.7845 50 
62.2346 55.7829 51.8578 44.8166 60.0051 53.7845 55.7829 50 57.8555 
51.8578 51.8578 48.2088 60.0051 55.7829 51.8578 48.2088 66.9452 62.2346 
57.8555 51.8578 53.7845 50 57.8555 50 51.8578 46.4818 48.2088 
43.2111 50 48.2088 55.7829 51.8578 57.8555 50 64.547 53.7845 
57.8555 51.8578 48.2088 44.8166 51.8578 46.4818 53.7845 44.8166 44.8166 
41.6631 55.7829 48.2088 53.7845 50 50 43.2111 53.7845 48.2088 
55.7829 50 53.7845 46.4818 50 44.8166 55.7829 51.8578 51.8578 
46.4818 60.0051 51.8578 46.4818 43.2111 55.7829 51.8578 48.2088 43.2111 
53.7845 46.4818 51.8578 46.4818 51.8578 44.8166 51.8578 44.8166 51.8578 
46.4818 55.7829 50 50 43.2111 50 44.8166 48.2088 41.6631 
60.0051 53.7845 46.4818 43.2111 46.4818 41.6631 44.8166 41.6631 44.8166 
40.1706 46.4818 43.2111 43.2111 41.6631 48.2088 41.6631 44.8166 41.6631 
89.6332 77.463 86.4222 80.3411 92.9635 74.6879 83.3262 74.6879 77.463 
69.4326 77.463 72.0123 74.6879 66.9452 89.6332 80.3411 86.4222 74.6879 
72.0123 62.2346 80.3411 69.4326 83.3262 74.6879 80.3411 74.6879 77.463 
74.6879 80.3411 69.4326 74.6879 66.9452 77.463 69.4326 80.3411 74.6879 
80.3411 74.6879 74.6879 66.9452 74.6879 69.4326 72.0123 69.4326 83.3262 
74.6879 77.463 72.0123 77.463 69.4326 72.0123 64.547 72.0123 62.2346 
72.0123 64.547 72.0123 66.9452 72.0123 64.547 69.4326 60.0051 77.463 
69.4326 74.6879 69.4326 69.4326 64.547 66.9452 62.2346 66.9452 60.0051 
74.6879 64.547 62.2346 57.8555 66.9452 62.2346 80.3411 77.463 64.547 
62.2346 72.0123 64.547 72.0123 64.547 69.4326 62.2346 64.547 57.8555 
69.4326 60.0051 66.9452 60.0051 72.0123 62.2346 62.2346 60.0051 66.9452 
62.2346 69.4326 60.0051 62.2346 55.7829 64.547 57.8555 60.0051 57.8555 
64.547 55.7829 74.6879 64.547 66.9452 62.2346 57.8555 53.7845 66.9452 
62.2346 69.4326 62.2346 72.0123 64.547 64.547 57.8555 62.2346 57.8555 
64.547 57.8555 66.9452 64.547 60.0051 57.8555 64.547 60.0051 60.0051 
53.7845 60.0051 51.8578 64.547 60.0051 60.0051 51.8578 53.7845 48.2088 
64.547 57.8555 60.0051 55.7829 66.9452 64.547 62.2346 57.8555 57.8555 
51.8578 57.8555 53.7845 62.2346 55.7829 51.8578 50 62.2346 55.7829 
55.7829 53.7845 57.8555 55.7829 60.0051 53.7845 57.8555 53.7845 48.2088 
44.8166 53.7845 51.8578 60.0051 57.8555 55.7829 53.7845 69.4326 64.547 
60.0051 55.7829 57.8555 55.7829 60.0051 57.8555 46.4818 43.2111 55.7829 
51.8578 53.7845 48.2088 66.9452 62.2346 55.7829 53.7845 51.8578 50 
55.7829 51.8578 50 48.2088 60.0051 55.7829 50 44.8166 55.7829 
48.2088 57.8555 53.7845 50 46.4818 64.547 57.8555 62.2346 57.8555 
55.7829 51.8578 50 48.2088 62.2346 55.7829 51.8578 48.2088 62.2346 
57.8555 57.8555 53.7845 50 48.2088 44.8166 43.2111 50 44.8166 
55.7829 53.7845 62.2346 60.0051 55.7829 50 57.8555 53.7845 53.7845 
50 55.7829 53.7845 50 46.4818 53.7845 51.8578 48.2088 46.4818 
50 48.2088 46.4818 43.2111 48.2088 44.8166 50 48.2088 55.7829 
53.7845 48.2088 43.2111 43.2111 40.1706 48.2088 46.4818 50 44.8166 
46.4818 41.6631 50 48.2088 46.4818 43.2111 44.8166 43.2111 43.2111 
41.6631 48.2088 44.8166 48.2088 43.2111 53.7845 50 51.8578 50 
44.8166 43.2111 46.4818 43.2111 43.2111 38.7315 41.6631 40.1706 43.2111 
41.6631 43.2111 41.6631 46.4818 44.8166 86.4222 83.3262 80.3411 77.463 
89.6332 86.4222 72.0123 69.4326 83.3262 80.3411 77.463 69.4326 89.6332 
80.3411 66.9452 64.547 86.4222 77.463 83.3262 80.3411 77.463 74.6879 
80.3411 74.6879 77.463 74.6879 77.463 69.4326 86.4222 80.3411 72.0123 
66.9452 72.0123 66.9452 69.4326 66.9452 77.463 69.4326 72.0123 69.4326 
77.463 74.6879 74.6879 72.0123 64.547 60.0051 74.6879 72.0123 77.463 
74.6879 69.4326 66.9452 74.6879 69.4326 69.4326 62.2346 64.547 60.0051 
72.0123 66.9452 62.2346 60.0051 66.9452 60.0051 69.4326 62.2346 66.9452 
64.547 64.547 62.2346 74.6879 72.0123 66.9452 64.547 64.547 62.2346 
69.4326 66.9452 72.0123 64.547 66.9452 64.547 69.4326 64.547 62.2346 
60.0051 72.0123 69.4326 64.547 60.0051 66.9452 62.2346 69.4326 64.547 
64.547 60.0051 66.9452 64.547 62.2346 60.0051 64.547 60.0051 55.7829 
50 66.9452 62.2346 62.2346 60.0051 57.8555 55.7829 62.2346 57.8555 
55.7829 51.8578 66.9452 64.547 62.2346 57.8555 55.7829 51.8578 55.7829 
53.7845 51.8578 50 51.8578 50 60.0051 57.8555 53.7845 48.2088 
62.2346 57.8555 60.0051 55.7829 53.7845 50 62.2346 60.0051 55.7829 
53.7845 53.7845 50 57.8555 55.7829 55.7829 53.7845 51.8578 50 
60.0051 57.8555 51.8578 50 55.7829 51.8578 55.7829 53.7845 62.2346 
60.0051 55.7829 51.8578 53.7845 51.8578 69.4326 66.9452 55.7829 53.7845 
46.4818 43.2111 51.8578 50 53.7845 50 51.8578 50 44.8166 
43.2111 62.2346 60.0051 51.8578 50 51.8578 50 60.0051 57.8555 
60.0051 55.7829 53.7845 51.8578 51.8578 50 57.8555 53.7845 57.8555 
55.7829 55.7829 50 55.7829 53.7845 55.7829 53.7845 51.8578 48.2088 
60.0051 57.8555 60.0051 57.8555 46.4818 44.8166 46.4818 43.2111 50 
46.4818 64.547 62.2346 48.2088 46.4818 53.7845 51.8578 51.8578 50 
51.8578 50 51.8578 48.2088 55.7829 53.7845 51.8578 50 44.8166 
43.2111 50 48.2088 51.8578 50 44.8166 43.2111 46.4818 44.8166 
48.2088 46.4818 44.8166 43.2111 46.4818 44.8166 55.7829 53.7845 57.8555 
55.7829 53.7845 51.8578 44.8166 43.2111 48.2088 46.4818 46.4818 44.8166 
48.2088 46.4818 48.2088 44.8166 55.7829 53.7845 48.2088 46.4818 44.8166 
43.2111 57.8555 55.7829 46.4818 44.8166 43.2111 41.6631 80.3411 77.463 
89.6332 86.4222 83.3262 80.3411 74.6879 69.4326 86.4222 83.3262 69.4326 
64.547 74.6879 72.0123 74.6879 72.0123 86.4222 83.3262 64.547 62.2346 
83.3262 77.463 72.0123 69.4326 83.3262 77.463 74.6879 69.4326 69.4326 
66.9452 72.0123 66.9452 72.0123 69.4326 83.3262 80.3411 80.3411 77.463 
69.4326 66.9452 72.0123 69.4326 74.6879 72.0123 66.9452 62.2346 72.0123 
69.4326 62.2346 60.0051 64.547 62.2346 74.6879 72.0123 66.9452 64.547 
64.547 62.2346 66.9452 64.547 66.9452 64.547 77.463 74.6879 66.9452 
64.547 69.4326 64.547 66.9452 64.547 64.547 60.0051 72.0123 69.4326 
64.547 62.2346 64.547 60.0051 64.547 62.2346 62.2346 57.8555 66.9452 
64.547 66.9452 64.547 60.0051 57.8555 62.2346 57.8555 60.0051 57.8555 
66.9452 64.547 60.0051 57.8555 72.0123 69.4326 64.547 62.2346 64.547 
57.8555 64.547 62.2346 64.547 62.2346 60.0051 57.8555 60.0051 57.8555 
66.9452 64.547 57.8555 55.7829 62.2346 57.8555 60.0051 55.7829 74.6879 
72.0123 62.2346 60.0051 55.7829 53.7845 57.8555 55.7829 57.8555 55.7829 
57.8555 53.7845 50 48.2088 57.8555 53.7845 55.7829 51.8578 50 
48.2088 55.7829 53.7845 60.0051 57.8555 50 48.2088 60.0051 55.7829 
60.0051 57.8555 53.7845 51.8578 60.0051 57.8555 53.7845 50 60.0051 
57.8555 53.7845 51.8578 57.8555 55.7829 53.7845 51.8578 60.0051 57.8555 
66.9452 64.547 57.8555 55.7829 53.7845 51.8578 53.7845 51.8578 51.8578 
50 60.0051 57.8555 57.8555 55.7829 48.2088 46.4818 44.8166 43.2111 
51.8578 50 51.8578 50 53.7845 51.8578 57.8555 55.7829 46.4818 
44.8166 55.7829 53.7845 53.7845 51.8578 53.7845 51.8578 57.8555 55.7829 
53.7845 51.8578 48.2088 46.4818 60.0051 57.8555 53.7845 51.8578 48.2088 
44.8166 50 48.2088 57.8555 55.7829 51.8578 50 48.2088 46.4818 
46.4818 44.8166 46.4818 44.8166 44.8166 43.2111 51.8578 50 53.7845 
51.8578 50 46.4818 48.2088 46.4818 48.2088 46.4818 51.8578 50 
48.2088 46.4818 46.4818 43.2111 50 48.2088 41.6631 40.1706 46.4818 
44.8166 44.8166 43.2111 44.8166 43.2111 50 48.2088 44.8166 43.2111 
50 48.2088 53.7845 51.8578 51.8578 50 53.7845 51.8578 46.4818 
44.8166 46.4818 44.8166 44.8166 43.2111 41.6631 40.1706 40.1706 38.7315 
43.2111 41.6631 44.8166 43.2111 44.8166 43.2111 83.3262 80.3411 80.3411 
77.463 92.9635 89.6332 72.0123 69.4326 72.0123 69.4326 69.4326 66.9452 
66.9452 64.547 83.3262 80.3411 80.3411 77.463 80.3411 77.463 80.3411 
77.463 77.463 74.6879 72.0123 69.4326 83.3262 80.3411 77.463 74.6879 
69.4326 66.9452 80.3411 77.463 74.6879 69.4326 72.0123 69.4326 72.0123 
69.4326 72.0123 69.4326 72.0123 69.4326 74.6879 72.0123 69.4326 64.547 
64.547 62.2346 69.4326 66.9452 66.9452 62.2346 74.6879 72.0123 64.547 
62.2346 62.2346 60.0051 62.2346 57.8555 62.2346 60.0051 69.4326 66.9452 
60.0051 57.8555 66.9452 64.547 60.0051 57.8555 66.9452 64.547 60.0051 
57.8555 62.2346 60.0051 62.2346 60.0051 64.547 62.2346 69.4326 66.9452 
66.9452 64.547 62.2346 60.0051 72.0123 69.4326 62.2346 60.0051 51.8578 
48.2088 62.2346 60.0051 66.9452 62.2346 64.547 62.2346 62.2346 57.8555 
64.547 62.2346 57.8555 55.7829 60.0051 57.8555 60.0051 57.8555 60.0051 
57.8555 64.547 62.2346 64.547 62.2346 57.8555 55.7829 55.7829 53.7845 
62.2346 57.8555 60.0051 57.8555 53.7845 51.8578 64.547 62.2346 62.2346 
60.0051 53.7845 51.8578 53.7845 51.8578 60.0051 57.8555 57.8555 55.7829 
60.0051 57.8555 53.7845 51.8578 53.7845 51.8578 50 48.2088 51.8578 
50 53.7845 51.8578 
