# vtk DataFile Version 4.1
vtk output
ASCII
DATASET POLYDATA
POINTS 1300 float
16125 47875 54078.1 14835.9 45358.8 52015.6 15325.8 46314.9 52799.4 
19734.4 43794.3 47117.2 14982.9 45645.6 52250.8 12000 42777.5 45054.7 
18311.3 44216 47965.6 18072 41945.3 42218.8 12700.4 42826.6 45300.7 
11608.1 40914.1 40671.9 19307.5 43920.9 47371.7 25782.7 39625 46085.9 
22804.1 41601.1 46677.4 24117.2 39139.3 39898.4 12372.8 42252.8 43912.1 
7617.19 36561.2 43507.8 17603.4 42470.4 42614 16125 41225.5 37062.5 
9424.35 38724 43661.5 6776.72 36789.1 37062.5 25366.1 39689.4 45956.9 
28551.6 36273.4 44023.4 8430.53 37012.6 43911 6843.75 31907.1 45828.1 
16686.8 41698.5 39172 21539.1 40224.2 34742.2 27828.6 37064.1 44040.1 
29531.2 35332.9 40414.1 7827.56 35072.5 44639.5 5554.69 31375 41238 
6896.14 36097.3 38313 4728.66 33437.5 34226.6 16294.4 41429.7 37175.5 
15609.4 41230.7 31390.6 6236.55 32484.3 42258.5 5756.81 26992.2 44023.4 
29020.5 35852.3 41501.9 27468.8 37622.3 36804.7 28334.7 36510.6 44028.5 
31078.1 31117.2 43513 16175.8 41286.8 37096.4 10710.9 40214.9 34742.2 
29457 35482.3 40442.3 31153.4 34210.9 36031.2 19804.7 40881.6 35534.7 
21281.2 41233.8 29328.1 5900.77 28639.8 43494 4523.44 25445.3 40736.8 
5240.98 33614.2 35005.1 4207.87 29570.3 31906.2 15699.7 41288.4 31444 
15351.6 41230.7 27523.4 5870.15 27422.9 44144.2 5959.97 23125 47117.2 
5713.91 31652 41210 4207.87 29312.5 37320.3 30027.8 31832.5 43893.1 
30462.5 27507.8 44281.2 30763.1 31331.8 43627 32133.1 29570.3 38609.4 
30272.4 35154.6 37494.9 30070.6 37046.9 32937.5 27604.4 37629.3 37225 
26179.7 39670.4 32937.5 15636.5 41248 31406.7 10968.8 40709.9 30101.6 
11449.1 39973.8 34701.5 7101.56 38128.7 31906.2 4455.79 29602.4 32289 
4207.87 26218.8 30617.2 4282.23 29579.9 32021.1 4207.87 29570.3 26234.4 
31560.1 29989.6 39060 31652.5 29054.7 34484.4 21602.8 41256.1 30159.2 
24117.2 41716.4 25203.1 22357.1 41394.2 28672.4 19476.6 42053.6 24687.5 
15563 41339.2 27864.5 15609.4 41535.9 23140.6 4393.29 27421.1 30686.4 
4770.94 24414.1 25976.6 30193.8 28170.2 44320.9 29381.7 23898.4 45312.5 
30381.9 27706.5 44293.1 31078.1 26366.2 40929.7 30061.2 36427.7 33626.6 
29614.8 36273.4 29070.3 23678.1 41432.4 25634.5 24375 40308.7 21593.8 
26751.8 39149.1 33553.7 27518.2 39882.8 29070.3 11668.4 40448.4 30013.9 
8132.81 39160.9 28296.9 15415 41263.2 27625.8 10926.5 40656.2 25203.1 
15648.8 41531.2 23263.7 15789.8 41687.5 19531.2 4882.31 33490.5 34460.1 
4781.25 34289.3 29328.1 4263.46 26579.4 30637.9 4781.25 21765.8 30359.4 
4804.56 24997.3 27733.3 5954.81 21062.5 26750 5333.69 23187.3 27281 
6300.28 22351.6 23656.2 31474.9 29307.1 35029.5 30562.5 29054.7 29554 
6206.23 22685.5 24129.6 7492.41 23125 20046.9 5944.4 22836 25075 
5554.69 25655.7 21851.6 24186.8 40263.8 22274.6 24375 37820.3 18664 
5574.69 25397.3 22799.3 4723.5 30859.4 20562.5 29481.8 36046.4 29593.4 
28502.1 35242.2 24429.7 30572.6 26380.5 41942.8 29605.5 22351.6 37835.9 
24318.6 40295.2 21798 21281.2 41191.5 18500 29410.3 24618.7 45441.8 
28019.4 20804.7 48148.4 29390.3 24114.5 45351.3 28052.4 19515.6 42992.2 
29961.2 23461.4 38244.1 30046.9 22862 35773.4 15621.2 41534.5 23177.6 
12515.6 40709.9 22367.2 31035 28770.5 32969.5 30092.2 25960.9 30875 
30008.5 29543.9 44600.5 29379.7 26734.4 47632.8 15838.5 41597.1 19642.8 
16125 41543.1 15664.1 30549.9 29122.3 30047.5 29561.2 30085.9 26492.2 
4994.41 22243 30737.3 6134.25 17968.8 31390.6 24303.5 38748.9 20036 
26468.4 34468.8 20304.7 7621.11 22905.2 20559.3 9421.88 22842.4 17210.9 
24127 38221.7 19015.9 22864.2 37304.7 16179.7 5047 28783.8 21412.5 
5812.5 29564.1 17210.9 8870.88 39292 28399.5 6585.94 37614.1 25718.8 
7530.98 23059.1 20200.6 6990.19 25960.9 17984.4 15970.3 41572.2 17812.6 
13499.4 39882.8 15921.9 29712.2 22684.5 37958.3 27843.1 19000 38093.8 
4303.68 30079 28007.1 4705.97 33179.7 24429.7 28852.4 20989.6 38020.6 
27468.8 19235.1 34226.6 6064.84 21470.8 26857.2 8648.44 17453.1 25884.8 
5608.83 29761.1 18501 6271.41 32921.9 15921.9 15922.4 41429.2 16091.2 
15064.9 40656.2 13343.8 27883.8 19761.5 35364.8 28408.2 21062.5 33195.3 
6112.49 18513 31614.7 7359.38 15027.6 32937.5 28294.6 20644.9 44178.8 
26437.5 16084.7 45570.3 7253.26 19622.7 26409.9 9034.12 19257.8 22625 
30175.1 26647.3 31007.4 28866.1 25445.3 27781.2 9005.97 19488.9 23042.1 
10968.8 19666.2 19789.1 25819 35752.8 20224.1 24964.9 31632.8 17726.6 
9055.37 23115.5 17645.8 10276.8 24671.9 13859.4 23288.3 37192.5 16919.7 
22736.3 34210.9 14375 5961.31 29557.2 17417.1 7617.19 28796.9 13984.2 
14833.7 40795.1 16942.9 12000 39685.8 18500 6289.76 32140.7 16185.2 
7680.09 33437.5 12828.1 4847.04 33099.4 24638.6 5554.69 35550.5 22109.4 
27819.1 19325.8 38068.2 25148.4 16352.8 38093.8 8229.85 18104 26042.3 
8906.25 15390.6 29120.8 27398.3 19290.2 34482.2 25453.7 17710.9 31906.2 
28984.3 25425.8 28657.7 26437.5 22301 25976.6 7423 15522.7 32875.1 
9011.44 12812.5 34226.6 7636.99 38386 26951.9 8132.81 39144.4 23398.4 
7278.42 29182.6 14551.5 8390.62 30085.9 11416.3 6883.25 16430 32839.7 
6843.75 14527.5 35773.4 24856.4 32590.3 17861.9 23601.6 30343.8 15355.7 
28099.1 20643.2 33485.4 27511 21320.3 29843.8 7476.32 33400.8 13662.3 
8906.25 35676.3 12312.5 26650.2 16952.2 44942 24375 13486.9 43765.6 
25899.9 18209.5 32263.8 24890.6 18226.6 29492.1 26384.6 16169.2 45444.5 
25406.2 14024.2 46601.6 27256.7 23575.2 26590.1 25921.9 23590.1 23656.2 
25689.1 16884.2 38411.7 23859.4 14415.1 40414.1 5616.25 35193.5 22431.3 
7359.38 37727.5 19531.2 23662.7 31062.6 15522.2 22385.7 30343.8 13085.9 
13541.1 39889.9 16113.7 11742.2 38605.1 15148.4 6784.14 14944.8 35661.6 
6585.94 13843.8 38726.9 26429.1 23584.4 24771.1 26953.1 26694.2 22625 
24525.6 13926.8 44430.8 22312.5 11097.5 44796.9 8549.03 13606.8 34258.9 
9679.69 11710.1 37835.9 23619.9 30559.4 15405.6 22373.3 26992.2 14375 
24890.3 18040.1 30150.5 22365.1 16937.5 27265.6 6276.87 32687.5 16000.9 
6328.12 35529.9 17468.8 26609.3 22567.2 26341.3 25148.4 20289.1 26697.4 
22304.6 11402.2 44582.5 20765.6 9869.31 44539.1 26795.9 25761.2 23268.8 
25486.7 25960.9 20820.3 22610.1 34425.9 14442 22054.7 32664.1 12777.6 
22442.9 30267.8 13194.2 20765.6 29045.4 9992.19 9193.97 12087.7 37331.7 
8390.62 10750 41132.8 22847 28347.7 14766.7 23343.8 25394.8 17210.9 
22350.2 27156.8 14439.9 21023.4 24779.1 13859.4 11894.2 38806.1 15445.1 
9358.97 37562.5 15406.2 22967.4 17427.4 27611.4 21796.9 18310.1 24171.9 
22545.8 17084.5 27369.4 20250 14341.8 29843.8 29857.8 29796.9 27558.8 
28546.4 27765.6 25460.9 24897.2 31764.6 17842.5 24938.1 28539.1 17984.4 
22335.3 17904 25754.1 19623 16679.7 24687.5 21958.4 18188.3 24646.5 
22589.9 20031.2 22367.2 20436.7 17047 25007.5 19263.1 17710.9 22367.2 
20295.7 14568.7 29755.2 18445.3 12801.2 31648.4 29500.3 29974.6 26603 
28046.2 30343.8 23398.4 19265.3 17715 22591.8 17929.7 18484.4 20152.1 
19592.5 13897.1 30474.6 16382.8 13070.3 29298.2 25896.7 23486 23827.8 
23894.4 22867.2 20820.3 18466.3 12946.6 31548.1 16382.8 11726.6 33195.3 
28161.3 30543.9 23648.1 27210.9 31375 21543.2 17507.9 12385.4 32305.8 
17992.6 11781.2 35000 23894.1 22704.3 21205.2 21605.1 21578.1 18757.8 
19867.1 16789.9 24783.5 17929.7 14833.8 26492.2 21886 21547.5 19613.2 
19992.2 20181.8 19015.6 21689.3 21568.9 19014.4 19527.1 21578.1 16179.7 
15885.2 47407 53694.5 18187.5 44856.5 52273.4 18068.1 45320 52253.5 
19734.4 44325.4 50984.4 14880 45444.8 52086.2 15609.4 44811.2 47117.2 
19584.9 44482.6 50957.4 21104.9 43750 49437.5 15217.8 44677.6 47732.2 
14835.9 43791.2 45054.7 19606.3 43832.3 47193.5 20298.5 42460.9 45054.7 
21035.2 43695.7 49707.3 22593 42718.8 48664.1 20365.4 42611 45306 
21328.7 41429.7 43507.8 14958.1 43774.6 45187.6 14835.9 42718.8 42469.3 
22765.1 40706.8 43381.2 22054.7 40702.7 42218.8 22267.8 40703.9 42567.5 
20250 41229.6 41960.9 11588.3 41202.2 41805.9 9554.91 39625 40671.9 
14658.5 42770.5 42691.5 14062.5 41696.8 40156.2 10049.2 39985.8 40689.3 
9164.06 39160.9 38609.4 20775.8 40977.1 41884.5 18960.9 40739.8 39898.4 
9214.9 39196 39098.8 7820.34 37820.3 38093.8 22779.9 41046.6 44633.7 
26179.7 38593.8 42964.3 23711.6 39609.5 40943.3 22054.7 39694.1 38609.4 
7912.02 36606.8 43496.9 6760.22 35242.2 41960.9 25940.4 38675.7 43001.8 
27309.9 37562.5 42218.8 24011.3 39280 40011.5 24375 38969.1 38093.8 
6938.52 35574.5 42059 5812.5 34984.4 39699.4 6016.07 34812.3 40293.6 
5252.53 33695.3 39125 7563.67 33952.9 45307.3 7839.94 33179.7 47117.2 
6812.5 36581.5 37437.7 5777.44 35757.8 34226.6 24139.4 39176.1 38476.2 
23601.6 39670.4 36031.2 7261.61 32495.7 45900.4 7617.19 29828.1 47944.2 
14305.3 40955.9 35429.3 13546.9 41230.7 33195.3 7459.61 30468.4 47855.7 
7359.38 29828.1 49379.8 29509 35377.7 40422.5 30754.3 33437.5 40156.2 
20344.1 40993.9 33922 18703.1 41230.7 31906.2 26351.3 39513.9 33122.4 
23859.4 40195.3 33453.1 5392.68 33780.3 39408.8 4781.25 32148.4 38898.1 
5790.84 27121.4 44059.6 5396.91 24929.7 44281.2 4670.7 33234.3 32152.4 
4213.03 31890.6 30617.2 23978.1 39324.4 37742.7 25453.7 38851.6 36289.1 
19146.2 41166.7 32125.7 18703.1 41230.7 29585.9 25365.7 39865.5 33005.3 
24117.2 40710.9 31648.4 9191.49 39179.9 38873.7 11226.6 40214.9 37320.3 
4964.71 32638 39051.4 4722.47 32148.4 36546.9 30983.6 31181.6 43547.2 
31135.9 29054.7 42734.4 30915.2 34328 36660.6 32157.8 32148.4 36031.2 
31139.1 34215.8 36071.1 31646.3 33953.1 34742.2 30067.8 36861.1 33144.2 
28567 38335.9 32679.7 4895.31 26055.2 41623.6 4523.44 23640.6 41753.7 
8953.79 39336.6 32199.9 8390.62 39429.1 31132.8 5846.84 23396.9 46579.8 
5752.69 20804.7 47890.6 18591.6 41348 29880 17671.9 41741.1 27007.8 
5926.04 23206.6 46956 5944.5 23640.6 49437.5 31428.8 33849.5 35024.9 
31650.5 32406.2 32679.7 4614.5 29583.2 38406.6 4207.87 26734.4 37578.1 
31961.2 29696.1 38744.6 31652.5 27765.6 38093.8 31584 32839.2 33383.2 
31135.9 33695.3 31390.6 13327.8 40939.8 29808.1 12123.7 40914.1 28296.9 
7421.15 38206.2 31985.5 5812.5 36352.8 31906.2 27104.3 39486.6 31491.3 
29067.2 38335.9 30359.4 4779.19 24845.3 26551.5 4726.59 25703.1 24687.5 
[...]
CELL_DATA 1299
SCALARS radius float
LOOKUP_TABLE default
86.4222 96.4176 83.3262 92.9635 86.4222 92.9635 83.3262 89.6332 69.4326 
89.6332 80.3411 86.4222 69.4326 86.4222 72.0123 89.6332 77.463 83.3262 
72.0123 83.3262 72.0123 80.3411 62.2346 86.4222 74.6879 80.3411 69.4326 
77.463 69.4326 80.3411 72.0123 83.3262 72.0123 74.6879 60.0051 77.463 
64.547 77.463 66.9452 80.3411 69.4326 74.6879 64.547 83.3262 72.0123 
69.4326 62.2346 77.463 69.4326 77.463 69.4326 66.9452 57.8555 72.0123 
64.547 74.6879 64.547 72.0123 64.547 72.0123 62.2346 69.4326 62.2346 
74.6879 64.547 72.0123 57.8555 74.6879 66.9452 72.0123 62.2346 69.4326 
62.2346 77.463 66.9452 74.6879 64.547 74.6879 62.2346 72.0123 62.2346 
69.4326 60.0051 66.9452 57.8555 66.9452 57.8555 72.0123 62.2346 66.9452 
55.7829 66.9452 57.8555 72.0123 62.2346 66.9452 60.0051 74.6879 64.547 
69.4326 60.0051 66.9452 57.8555 64.547 55.7829 66.9452 57.8555 60.0051 
51.8578 62.2346 53.7845 69.4326 60.0051 60.0051 53.7845 62.2346 53.7845 
64.547 57.8555 64.547 57.8555 64.547 57.8555 62.2346 53.7845 62.2346 
55.7829 64.547 55.7829 64.547 60.0051 72.0123 66.9452 62.2346 55.7829 
60.0051 51.8578 64.547 55.7829 66.9452 62.2346 55.7829 48.2088 64.547 
55.7829 57.8555 51.8578 62.2346 53.7845 53.7845 48.2088 60.0051 53.7845 
60.0051 51.8578 69.4326 62.2346 57.8555 50 60.0051 50 55.7829 
50 57.8555 53.7845 55.7829 50 62.2346 55.7829 57.8555 48.2088 
55.7829 51.8578 62.2346 57.8555 53.7845 50 64.547 55.7829 51.8578 
46.4818 60.0051 51.8578 53.7845 48.2088 57.8555 53.7845 53.7845 48.2088 
64.547 60.0051 53.7845 44.8166 53.7845 48.2088 53.7845 46.4818 60.0051 
53.7845 57.8555 50 60.0051 53.7845 50 48.2088 60.0051 51.8578 
62.2346 53.7845 53.7845 46.4818 50 44.8166 53.7845 50 51.8578 
46.4818 51.8578 48.2088 57.8555 51.8578 50 48.2088 62.2346 53.7845 
57.8555 51.8578 55.7829 50 55.7829 51.8578 55.7829 50 51.8578 
48.2088 55.7829 48.2088 55.7829 46.4818 50 43.2111 51.8578 50 
55.7829 53.7845 50 46.4818 53.7845 50 55.7829 51.8578 55.7829 
53.7845 51.8578 46.4818 51.8578 46.4818 48.2088 41.6631 51.8578 44.8166 
48.2088 41.6631 46.4818 41.6631 57.8555 51.8578 60.0051 51.8578 46.4818 
40.1706 44.8166 38.7315 44.8166 40.1706 43.2111 38.7315 55.7829 51.8578 
43.2111 41.6631 41.6631 36.0062 53.7845 46.4818 40.1706 34.7163 53.7845 
48.2088 37.344 34.7163 50 44.8166 43.2111 38.7315 48.2088 43.2111 
46.4818 41.6631 100 89.6332 92.9635 83.3262 89.6332 74.6879 86.4222 
74.6879 80.3411 69.4326 86.4222 74.6879 83.3262 77.463 80.3411 74.6879 
74.6879 64.547 80.3411 74.6879 77.463 69.4326 77.463 72.0123 69.4326 
64.547 74.6879 66.9452 74.6879 66.9452 72.0123 66.9452 83.3262 69.4326 
77.463 69.4326 74.6879 66.9452 74.6879 69.4326 74.6879 69.4326 72.0123 
64.547 69.4326 64.547 72.0123 69.4326 77.463 72.0123 72.0123 66.9452 
69.4326 62.2346 74.6879 64.547 66.9452 64.547 72.0123 62.2346 80.3411 
74.6879 64.547 53.7845 66.9452 62.2346 64.547 62.2346 69.4326 62.2346 
69.4326 60.0051 77.463 69.4326 62.2346 60.0051 69.4326 62.2346 64.547 
60.0051 69.4326 64.547 69.4326 64.547 66.9452 60.0051 64.547 60.0051 
64.547 60.0051 66.9452 64.547 62.2346 60.0051 72.0123 64.547 60.0051 
55.7829 64.547 57.8555 69.4326 62.2346 66.9452 60.0051 62.2346 57.8555 
69.4326 66.9452 60.0051 55.7829 62.2346 57.8555 64.547 60.0051 66.9452 
62.2346 69.4326 60.0051 64.547 57.8555 69.4326 60.0051 66.9452 62.2346 
64.547 62.2346 64.547 62.2346 64.547 55.7829 60.0051 55.7829 60.0051 
55.7829 69.4326 62.2346 62.2346 57.8555 60.0051 53.7845 57.8555 51.8578 
57.8555 51.8578 57.8555 53.7845 66.9452 62.2346 57.8555 53.7845 69.4326 
62.2346 62.2346 57.8555 53.7845 50 55.7829 50 55.7829 51.8578 
64.547 57.8555 57.8555 53.7845 57.8555 53.7845 57.8555 51.8578 60.0051 
55.7829 57.8555 51.8578 55.7829 53.7845 55.7829 51.8578 53.7845 51.8578 
60.0051 53.7845 55.7829 50 60.0051 55.7829 50 46.4818 51.8578 
50 51.8578 50 55.7829 53.7845 60.0051 51.8578 48.2088 43.2111 
51.8578 48.2088 66.9452 60.0051 50 46.4818 55.7829 50 51.8578 
48.2088 50 46.4818 55.7829 51.8578 53.7845 51.8578 55.7829 51.8578 
72.0123 64.547 50 46.4818 57.8555 50 51.8578 50 53.7845 
50 50 46.4818 60.0051 55.7829 55.7829 50 50 46.4818 
53.7845 48.2088 48.2088 44.8166 48.2088 44.8166 53.7845 51.8578 57.8555 
53.7845 53.7845 51.8578 50 46.4818 46.4818 43.2111 51.8578 50 
50 48.2088 51.8578 48.2088 53.7845 51.8578 53.7845 51.8578 50 
46.4818 55.7829 50 53.7845 50 55.7829 51.8578 48.2088 44.8166 
57.8555 55.7829 50 48.2088 46.4818 43.2111 53.7845 51.8578 44.8166 
41.6631 53.7845 51.8578 41.6631 38.7315 43.2111 40.1706 41.6631 40.1706 
41.6631 40.1706 46.4818 44.8166 36.0062 34.7163 50 48.2088 41.6631 
40.1706 44.8166 41.6631 96.4176 92.9635 89.6332 86.4222 77.463 72.0123 
74.6879 69.4326 77.463 69.4326 74.6879 72.0123 80.3411 77.463 80.3411 
77.463 72.0123 69.4326 72.0123 69.4326 66.9452 62.2346 77.463 72.0123 
69.4326 66.9452 74.6879 69.4326 66.9452 62.2346 72.0123 69.4326 74.6879 
72.0123 72.0123 62.2346 66.9452 64.547 66.9452 62.2346 64.547 60.0051 
74.6879 69.4326 74.6879 72.0123 60.0051 55.7829 72.0123 69.4326 72.0123 
69.4326 72.0123 69.4326 66.9452 64.547 72.0123 69.4326 66.9452 62.2346 
66.9452 57.8555 66.9452 60.0051 74.6879 72.0123 66.9452 62.2346 64.547 
62.2346 66.9452 62.2346 64.547 62.2346 74.6879 66.9452 66.9452 62.2346 
64.547 62.2346 72.0123 66.9452 69.4326 64.547 64.547 60.0051 66.9452 
64.547 69.4326 62.2346 66.9452 64.547 66.9452 64.547 66.9452 64.547 
62.2346 57.8555 60.0051 55.7829 62.2346 55.7829 57.8555 53.7845 66.9452 
64.547 60.0051 55.7829 55.7829 51.8578 60.0051 57.8555 62.2346 60.0051 
55.7829 53.7845 57.8555 51.8578 66.9452 62.2346 69.4326 64.547 66.9452 
62.2346 64.547 62.2346 57.8555 55.7829 62.2346 57.8555 64.547 62.2346 
64.547 57.8555 62.2346 57.8555 62.2346 55.7829 60.0051 57.8555 51.8578 
48.2088 53.7845 50 55.7829 53.7845 60.0051 53.7845 60.0051 57.8555 
62.2346 57.8555 53.7845 50 51.8578 48.2088 53.7845 51.8578 57.8555 
55.7829 50 48.2088 53.7845 51.8578 57.8555 55.7829 51.8578 48.2088 
57.8555 53.7845 51.8578 50 53.7845 51.8578 53.7845 51.8578 51.8578 
50 55.7829 53.7845 62.2346 57.8555 51.8578 50 57.8555 55.7829 
48.2088 46.4818 55.7829 53.7845 57.8555 55.7829 50 46.4818 62.2346 
57.8555 53.7845 50 51.8578 50 69.4326 66.9452 57.8555 55.7829 
51.8578 50 48.2088 44.8166 51.8578 50 53.7845 51.8578 48.2088 
46.4818 48.2088 46.4818 53.7845 50 51.8578 50 51.8578 50 
48.2088 46.4818 51.8578 50 48.2088 44.8166 46.4818 44.8166 53.7845 
50 53.7845 51.8578 44.8166 43.2111 51.8578 50 55.7829 53.7845 
51.8578 50 50 48.2088 48.2088 46.4818 60.0051 57.8555 51.8578 
50 48.2088 46.4818 50 48.2088 44.8166 43.2111 44.8166 41.6631 
44.8166 43.2111 55.7829 53.7845 40.1706 37.344 40.1706 38.7315 38.7315 
36.0062 37.344 36.0062 51.8578 50 43.2111 41.6631 51.8578 48.2088 
40.1706 38.7315 36.0062 34.7163 43.2111 41.6631 86.4222 80.3411 77.463 
74.6879 80.3411 77.463 83.3262 80.3411 72.0123 69.4326 72.0123 69.4326 
72.0123 66.9452 83.3262 77.463 80.3411 74.6879 74.6879 69.4326 72.0123 
69.4326 64.547 60.0051 62.2346 60.0051 69.4326 66.9452 74.6879 72.0123 
66.9452 62.2346 74.6879 72.0123 72.0123 69.4326 69.4326 66.9452 62.2346 
57.8555 80.3411 77.463 60.0051 57.8555 74.6879 66.9452 69.4326 66.9452 
57.8555 55.7829 57.8555 55.7829 64.547 62.2346 77.463 72.0123 62.2346 
60.0051 64.547 62.2346 66.9452 64.547 69.4326 66.9452 64.547 62.2346 
64.547 62.2346 66.9452 62.2346 69.4326 66.9452 64.547 62.2346 62.2346 
60.0051 66.9452 64.547 69.4326 66.9452 72.0123 66.9452 64.547 62.2346 
64.547 60.0051 62.2346 60.0051 57.8555 53.7845 64.547 62.2346 66.9452 
64.547 64.547 60.0051 62.2346 60.0051 55.7829 53.7845 62.2346 57.8555 
62.2346 60.0051 57.8555 55.7829 66.9452 64.547 64.547 62.2346 66.9452 
64.547 64.547 62.2346 64.547 62.2346 64.547 62.2346 64.547 62.2346 
60.0051 57.8555 60.0051 57.8555 60.0051 55.7829 57.8555 55.7829 57.8555 
55.7829 55.7829 53.7845 66.9452 64.547 64.547 62.2346 60.0051 57.8555 
55.7829 53.7845 55.7829 51.8578 66.9452 64.547 57.8555 55.7829 60.0051 
55.7829 50 48.2088 55.7829 53.7845 55.7829 53.7845 50 48.2088 
50 48.2088 64.547 62.2346 55.7829 53.7845 55.7829 53.7845 46.4818 
44.8166 53.7845 51.8578 51.8578 50 57.8555 55.7829 48.2088 46.4818 
48.2088 46.4818 57.8555 53.7845 60.0051 57.8555 51.8578 50 53.7845 
51.8578 57.8555 55.7829 55.7829 53.7845 57.8555 55.7829 57.8555 55.7829 
46.4818 44.8166 46.4818 44.8166 55.7829 53.7845 51.8578 50 51.8578 
50 51.8578 50 64.547 62.2346 46.4818 44.8166 48.2088 46.4818 
48.2088 46.4818 44.8166 43.2111 46.4818 43.2111 50 48.2088 48.2088 
46.4818 60.0051 57.8555 50 48.2088 53.7845 51.8578 53.7845 51.8578 
53.7845 51.8578 51.8578 50 46.4818 44.8166 44.8166 43.2111 43.2111 
41.6631 48.2088 46.4818 50 48.2088 46.4818 44.8166 48.2088 46.4818 
43.2111 41.6631 40.1706 38.7315 38.7315 37.344 38.7315 37.344 37.344 
36.0062 48.2088 46.4818 43.2111 41.6631 50 48.2088 41.6631 40.1706 
44.8166 43.2111 43.2111 41.6631 83.3262 80.3411 83.3262 80.3411 77.463 
72.0123 74.6879 72.0123 72.0123 69.4326 77.463 74.6879 69.4326 66.9452 
86.4222 83.3262 72.0123 66.9452 77.463 74.6879 80.3411 77.463 77.463 
74.6879 64.547 62.2346 72.0123 69.4326 72.0123 69.4326 64.547 62.2346 
64.547 62.2346 72.0123 69.4326 69.4326 66.9452 80.3411 74.6879 72.0123 
69.4326 77.463 74.6879 77.463 74.6879 69.4326 66.9452 64.547 62.2346 
55.7829 53.7845 62.2346 60.0051 62.2346 60.0051 62.2346 60.0051 64.547 
62.2346 64.547 62.2346 74.6879 72.0123 72.0123 69.4326 62.2346 60.0051 
60.0051 57.8555 69.4326 66.9452 64.547 62.2346 69.4326 66.9452 62.2346 
60.0051 64.547 62.2346 62.2346 60.0051 60.0051 57.8555 69.4326 66.9452 
66.9452 64.547 69.4326 66.9452 57.8555 55.7829 60.0051 57.8555 66.9452 
64.547 62.2346 60.0051 62.2346 60.0051 60.0051 57.8555 60.0051 57.8555 
60.0051 57.8555 53.7845 51.8578 57.8555 55.7829 62.2346 60.0051 62.2346 
60.0051 55.7829 51.8578 62.2346 57.8555 53.7845 51.8578 53.7845 51.8578 
60.0051 57.8555 60.0051 57.8555 60.0051 57.8555 64.547 62.2346 53.7845 
51.8578 55.7829 53.7845 62.2346 60.0051 57.8555 55.7829 60.0051 57.8555 
62.2346 60.0051 60.0051 57.8555 53.7845 51.8578 55.7829 53.7845 57.8555 
55.7829 57.8555 55.7829 
