# vtk DataFile Version 4.1
vtk output
ASCII
DATASET POLYDATA
POINTS 1300 float
16125 47875 54078.1 15093.8 45355.7 51757.8 15403.1 46111.5 52453.9 
19476.6 43808.8 47117.2 15186.6 45582.4 51966.6 12000 42736.3 44796.9 
18196.3 44161.6 47872.3 18187.5 41887.6 42218.8 19092.5 43914.6 47343.8 
24375 40973.9 46601.6 12081.3 42501.9 46585.9 8648.44 38646.3 42992.2 
22790.2 41856.1 46824.2 24250.2 39367.2 41703.1 17720.6 42409.6 43239.9 
14835.9 41230.7 38609.4 9358.76 39472.8 43168.4 7101.56 37113.9 37320.3 
18047.4 42044.2 42525.1 20507.8 40200.4 37062.5 8861.49 38894.3 43045.1 
6843.75 32452.7 44796.9 23461.8 40711.2 44468.5 28874.3 36015.6 44281.2 
16098.2 41643.3 39580.4 16640.6 41230.7 33968.8 26817.6 37799.9 44352.4 
28757.8 36067.2 39640.6 7516.02 35143.9 43502.1 5448.47 31890.6 40929.7 
7174.16 36912.7 38469.8 4781.25 33699.4 34742.2 7205 33170.2 44858.2 
7359.38 29312.5 49211.7 20096.2 40789.4 37743.3 22312.5 40851.2 31390.6 
15111.5 41401 38640.8 11484.4 40708.8 34742.2 6952.13 32667.9 44815.2 
5446.41 25960.9 43765.6 28304.5 36097.1 44167.5 31121.4 31117.2 43250 
5387.94 34221.2 34780 4213.03 31890.6 30617.2 20384.3 40377.1 37266.8 
25453.7 38851.6 36289.1 16755.8 41362.7 34392.9 17671.9 41230.7 29070.3 
5928.1 31964.7 41236.8 4207.87 27507.8 38351.6 28636 36130.8 40515.7 
31629.8 33179.7 36804.7 17397.1 41270.3 30667.1 13804.7 41230.7 27523.4 
30210.2 32751.9 43065.8 31654.6 30343.8 39640.6 30816.5 34134.1 37373.5 
31593.8 34305.8 33710.9 24421.9 39263.4 36083.8 27860.6 38851.6 32937.5 
21747.7 41081.7 31979.7 22828.1 41745.2 26234.4 7123.32 37053.5 37665.2 
8132.81 38651.5 33195.3 6060.72 27767 44766.4 6070.31 22093.8 48289.7 
4565.51 32589.8 31866 4207.87 26734.4 31132.8 30848.1 31607.6 43194.7 
30101.5 26992.2 45312.5 4392.06 31886.3 30748.8 4207.87 29312.5 27007.8 
31385.8 33466 36975.3 31648.4 28796.9 33968.8 17734.2 41319.8 29287.7 
18960.9 41745.2 25718.8 18592.9 41617.6 26789.4 15351.6 41246.1 23140.6 
4343.8 29599.7 28317.2 4718.35 24929.7 27007.8 7829.93 38172.1 34536.3 
5812.5 36352.8 30359.4 27202.2 38693.8 33353.9 29789.1 36930.3 29843.8 
23016.4 41353.3 26747 24426.6 40914.1 23140.6 8122.71 38553.7 33229.5 
9164.06 39699.2 28554.7 4576.03 26704.3 27505.4 5224.69 25703.1 23398.4 
4294.7 29554.2 27166.7 4255.31 29828.1 22625 31221.3 31066.2 40668.2 
30820.3 25445.3 40202.7 30161.2 27624.8 44560.2 29087.8 22609.4 44023.4 
26368.1 38864.7 34172.9 26695.3 40172.6 30359.4 24112.1 40743.9 23717.3 
24899.9 38851.6 20304.7 31499 30129.7 34347.4 31087.4 29312.5 30875 
16961.9 41475.9 24096 16898.4 41746.3 18757.8 13945 41089.5 27556 
11226.6 40692.3 24945.3 29134.5 36953.6 30538.8 30102.6 33695.3 28039.1 
31426.3 29043.5 33981.4 30605.8 25703.1 32679.7 4675.65 25462.1 27157.1 
5241.19 20804.7 30101.6 26787.4 39637.7 30919.8 27984.4 38874.2 27007.8 
4705.56 25089.4 27052.6 6522 21062.5 24945.3 24356.4 39240.6 20733.5 
23859.4 38078.1 17935.9 5415.57 25576.4 24002 7838.9 22867.2 19789.1 
24283.1 39691.5 21628.6 21329.7 40914.1 18242.2 30758.5 26529.8 39924.8 
29605.5 22351.6 37320.3 4535.09 29762.4 22920.9 5220.56 29828.1 19789.1 
27601.5 38632.9 27975.8 28242.2 35242.2 24142 29409.8 24114 44184.5 
27984.4 20735.6 48406.2 4266.76 31889.3 30656.7 4705.97 33179.7 26750 
29078.2 22787.1 43912.2 28029.8 19257.8 42734.4 5931.3 22176.4 26007.7 
6843.75 18951.5 27265.6 29653.6 33871.7 28550.2 29605.5 30601.6 27007.8 
4905.2 29797.9 21229.7 6070.31 26476.6 19483.8 24736.9 38968.3 20433.3 
26462.2 34984.4 20304.7 30852 26705.2 33070.2 29789.1 26171.3 30101.6 
6448.06 37013.4 30945.7 6461.16 37562.5 26492.2 23640.8 38305.7 18267.2 
22510.5 37562.5 15921.9 5160.75 29959.5 20011.5 5761.97 30859.4 16953.1 
12286.3 40781.3 25389.8 12000 40335.5 21593.8 29500.5 22739.6 37295.7 
28242.2 20156 35000 16626.8 41527.9 19657.7 14835.9 40707.8 14890.6 
30107.9 26331.5 30992.1 28568.1 23640.6 29585.9 5508.9 20966.2 29809 
6843.75 16058.9 32421.9 7442.29 23707 20401.5 9679.69 23640.6 16038.4 
11544.5 40719.1 25078.7 8569.03 39625 25460.9 28344.3 20316.6 43087.7 
27027.4 17710.9 45828.1 6570.06 19919 26888.2 9351.75 17710.9 24945.3 
25763.7 35537.3 19984.9 25939.4 32406.2 19015.6 8294.72 18550 25683.6 
9164.06 19464.1 22367.2 29123 21964.5 36607 27468.8 18617.4 38093.8 
4621.61 33180.7 26821.4 4781.25 34289.3 23656.2 5747.33 27976.9 19772 
7341.84 26992.2 16179.7 23520.4 41073 25353.4 21539.1 42260.9 22367.2 
9198.3 19296.7 22829.5 11085.3 20031.2 19273.4 22905.1 37461.7 16526.2 
22503.3 34984.4 14375 5751.14 30507.1 17454 6843.75 30078.7 14632.8 
12322.5 40376.6 21807.2 12515.6 40040.6 18757.8 28263.4 20482.5 35024.9 
26695.3 19000 32078.5 6428.57 30241.5 15704.9 7288.22 33179.7 13601.6 
6396.5 18504.2 30656.2 8511.28 15648.4 29328.1 27422.4 18492.6 45006 
25481.5 15132.8 44281.2 7097.95 16272.3 32235.4 8390.62 13328.1 34278.1 
28817.1 24438 29572.8 26497.3 22609.4 25976.6 7397.22 27084.1 16311.9 
8906.25 26476.6 13572.7 25666 33249.5 19030 24425.5 30601.6 16695.3 
9503.65 23838.5 16331.1 10968.8 24290.3 13343.8 27489.6 19105.5 37656.2 
24427.6 15648.4 37835.9 4902.11 34303.9 24330.4 5952.75 36531.2 22367.2 
10175.8 40215.8 25254.5 8390.62 39164 22625 6884.69 30048 14746.5 
8648.44 29266.1 11539.1 7589.14 15153.5 33011.6 6585.94 14875 36190.1 
8514.68 39040.2 22823 7303.69 37820.3 21078.1 7498.18 32961.3 13913.7 
9020.72 35757.8 12312.5 8306.06 16044.2 29897.5 10195.3 13798.4 29843.8 
26980.4 19240.4 33393.5 23915.1 16164.1 32421.9 25860.2 18208.2 32706.4 
24890.6 17800.7 30359.4 26780.8 19072.1 32473 26813.9 20546.9 29328.1 
27193.3 23158 27055.4 26455 25187.5 23140.6 25504 15367.7 44513.2 
23343.8 12131.9 44281.2 8497.46 13678.2 34008.1 11157.5 11265.6 35515.6 
24390.5 30943.6 16792.7 22882.8 28796.9 14375 25488.3 15203.2 44350.9 
24375 14552.2 40929.7 12391.3 39937.3 19111.9 12000 38654.6 15406.2 
22596.9 35256.2 14847.5 22397.1 32148.4 13601.6 24845.3 17919.8 30504.1 
23343.8 17643.9 27523.4 8422.7 13433.2 34197.1 8648.44 12227.8 38093.8 
7457.96 37832 21260.5 6070.31 35550.5 19015.6 22310.3 32493.2 13567.1 
21858.8 29828.1 12054.7 26690.1 25259.9 23815.9 26450.9 27765.6 21078.1 
23457.6 12590.7 44499.9 21281.2 10072.5 44796.9 7349.99 37823.8 21132.8 
8648.44 38119.4 17726.6 23335.1 29440.9 15100.3 22828.1 26218.8 15558.9 
26706.1 22774 26300.2 24926.7 20289.1 25976.6 8244.6 12723.9 37090.9 
6328.12 12757.8 40671.9 22897.8 28800.5 14528.3 21342.1 26476.6 12828.1 
21827.6 30475.5 12165.2 20765.6 29312.5 9927.22 8504.37 12270.3 37987.3 
8859.84 11007.8 40414.1 24454.9 16947.5 32147.2 21796.9 15481.4 29585.9 
23246.8 17606.6 27863.7 21281.2 17195.3 25332 26841 24629.3 24787.7 
28055.5 28023.4 24429.7 23142.5 28216.5 15274.6 24434.8 26476.6 18500 
22721.6 26629.2 15358.9 21281.2 24156.2 14841.1 21545.4 27104 12926.3 
19794.2 26476.6 10250 8252.13 37853.3 18357.5 8321.53 36789.1 15664.1 
21870.9 17318.7 26091.5 22312.5 19257.8 23267.5 22366.2 15729.2 30607.1 
19218.8 13585.9 30476.9 21277.1 17258.2 25412.6 19103.2 17195.3 23140.6 
29535.9 31483.5 27135.5 29015.6 30594.3 24945.3 22409.8 19003.4 23976.1 
23859.4 21180.1 22882.8 19576.3 13907.7 30846.6 16898.4 12285.5 31648.4 
19880.2 17442.6 23574.9 19218.8 18804.1 20562.5 28984.6 30942.6 25278.8 
27493.5 30859.4 21851.6 23127.8 20434.4 22992 23085.9 22539.2 20304.7 
19326 13682.5 30587.8 16393.1 13328.1 28554.7 23098.5 21907.8 21110.9 
24744.2 23898.4 21078.1 18344.5 13161.5 31215.5 17929.7 11757.5 35000 
18446.1 13576.1 29977.9 18445.3 14552.2 27265.6 19417.2 18395.6 21466.2 
21281.2 20227.2 20304.7 20722 19677.7 20653.1 20295.4 21320.3 17726.6 
21309 24407.6 15165 19734.4 22227.8 15406.2 15951.8 44217.6 49807.7 
18187.5 45296.9 52675.6 17048.9 44526.2 50746.8 19476.6 44340.9 50984.4 
15672.1 44778.2 50186.6 15867.2 44810.1 47117.2 15597.9 44698.2 47765.4 
14320.3 44072.8 45828.1 15112.4 44460.6 47029.3 16125 43811.9 45312.5 
19361.3 43840.5 47185.1 20765.6 42274.3 45054.7 15779.4 43906.1 45514.3 
15609.4 43234.4 43442.8 12089.9 42598.3 44991.2 12485.7 42203.1 42734.4 
12170.9 42176.1 43379.8 11226.6 41022.3 41703.1 20532.8 42471.8 45158.9 
21539.1 41189.4 42992.2 12520.7 42166 42934.7 14062.5 42051.5 41445.3 
23613 40166.7 43077.4 22570.3 40181.9 41445.3 11315.6 41116.3 41724.2 
10195.3 39709.6 39382.8 14918.6 41281.8 38618.9 12515.6 41182.2 39640.6 
10103.2 39841.9 39656 8906.25 38976.3 38351.6 23126.9 40070.2 41858.3 
23343.8 39431.1 39382.8 24276.1 39453.7 42002 25664.1 38443.2 41187.5 
8381.03 37586.9 43413.8 8024.53 36789.1 44796.9 7108.06 37095.8 37423.7 
6328.12 36789.1 35782.7 22601.5 40147.2 41475.5 20765.6 40340.7 40156.2 
8712.38 38720.7 43008.1 6261.1 35500 39898.4 6479.2 35526.7 40394.3 
5554.69 33953.1 39524.1 14023.3 41193.4 37471.3 14578.1 41230.7 35515.6 
14328.4 41218.7 35708.3 14320.3 41230.7 33968.8 6684.73 31197.6 44800.6 
6070.31 30343.8 43126.2 28090.5 36631.5 41666.7 30092.2 34210.9 41703.1 
20074.5 41022.2 34406.2 19218.8 41197.7 32679.7 25144.2 38975.1 36227.5 
26826.3 37562.5 38609.4 14430.8 41227.5 34077.5 15093.8 41230.7 31390.6 
22254.2 40056.1 36059.4 23601.6 40185 33968.8 5339.16 30173.5 40505.7 
5039.06 27765.6 41579.4 5592.33 31912.9 41021.8 4724.53 31375 38867.2 
29771.1 35233 38572.9 30046.9 35850.6 36289.1 29942.1 35615.9 37157 
28154.5 37562.5 36031.2 29848.3 34430.9 41477.8 30936.8 32921.9 40929.7 
23494.8 40213.8 34002.4 24375 40398.4 32297.1 11646.5 40593.9 35397.2 
9886.97 39882.8 34742.2 14645.1 41229.5 32150.6 13546.9 41230.7 30101.6 
10837.1 40266.7 35095.9 10453.1 40202.5 32937.5 10167.7 39749.3 39464.8 
11226.6 40214.9 37578.1 5510.14 26376.5 43754.9 4365.66 24414.1 41187.5 
5907.48 34629.8 39625.8 5235 33953.1 37578.1 4784.86 29120 39269.7 
4207.87 29312.5 37062.5 30747.6 29720.3 43405.9 31078.1 28281.2 42778.7 
29262.8 36355.6 36729.2 29531.2 36915.9 35000 29568.3 36728.5 35140.2 
30046.9 37046.9 33030.3 31580 30358.3 39701.5 31957.8 29054.7 38093.8 
18335.3 41528.3 27538.9 20765.6 41745.2 26750 13876.4 41230.3 30716.3 
11484.4 40718.1 30617.2 31391.8 33993.5 34555.5 31650.5 32406.2 32679.7 
[...]
CELL_DATA 1299
SCALARS radius float
LOOKUP_TABLE default
83.3262 100 86.4222 96.4176 80.3411 96.4176 80.3411 92.9635 80.3411 
92.9635 80.3411 89.6332 77.463 92.9635 80.3411 89.6332 77.463 89.6332 
77.463 86.4222 69.4326 86.4222 77.463 89.6332 80.3411 83.3262 72.0123 
80.3411 69.4326 86.4222 74.6879 74.6879 66.9452 86.4222 77.463 86.4222 
72.0123 72.0123 55.7829 80.3411 69.4326 83.3262 72.0123 83.3262 72.0123 
86.4222 72.0123 74.6879 64.547 77.463 66.9452 83.3262 77.463 77.463 
69.4326 72.0123 62.2346 77.463 69.4326 80.3411 74.6879 83.3262 74.6879 
64.547 55.7829 80.3411 66.9452 74.6879 64.547 77.463 66.9452 69.4326 
60.0051 77.463 66.9452 72.0123 60.0051 74.6879 64.547 80.3411 69.4326 
72.0123 60.0051 77.463 64.547 77.463 66.9452 72.0123 62.2346 72.0123 
64.547 74.6879 66.9452 69.4326 60.0051 74.6879 66.9452 69.4326 57.8555 
66.9452 60.0051 66.9452 57.8555 80.3411 69.4326 66.9452 60.0051 64.547 
57.8555 69.4326 62.2346 72.0123 62.2346 66.9452 51.8578 64.547 57.8555 
66.9452 60.0051 66.9452 57.8555 72.0123 62.2346 69.4326 60.0051 66.9452 
57.8555 66.9452 57.8555 74.6879 66.9452 64.547 55.7829 60.0051 53.7845 
62.2346 55.7829 66.9452 60.0051 62.2346 55.7829 62.2346 55.7829 74.6879 
64.547 62.2346 57.8555 64.547 55.7829 77.463 64.547 66.9452 57.8555 
62.2346 53.7845 60.0051 53.7845 64.547 55.7829 62.2346 51.8578 74.6879 
69.4326 60.0051 53.7845 57.8555 53.7845 60.0051 53.7845 55.7829 50 
64.547 60.0051 69.4326 60.0051 64.547 57.8555 72.0123 64.547 53.7845 
51.8578 60.0051 55.7829 60.0051 53.7845 72.0123 64.547 62.2346 55.7829 
57.8555 48.2088 62.2346 53.7845 57.8555 51.8578 60.0051 51.8578 57.8555 
50 60.0051 55.7829 57.8555 51.8578 55.7829 50 62.2346 55.7829 
64.547 60.0051 72.0123 64.547 55.7829 50 57.8555 51.8578 69.4326 
62.2346 51.8578 44.8166 55.7829 51.8578 60.0051 53.7845 57.8555 53.7845 
57.8555 51.8578 55.7829 50 55.7829 50 55.7829 50 55.7829 
48.2088 53.7845 50 66.9452 60.0051 57.8555 50 55.7829 51.8578 
53.7845 44.8166 66.9452 62.2346 53.7845 48.2088 51.8578 46.4818 51.8578 
48.2088 64.547 55.7829 53.7845 46.4818 53.7845 51.8578 50 44.8166 
51.8578 44.8166 51.8578 50 48.2088 44.8166 55.7829 48.2088 53.7845 
46.4818 53.7845 48.2088 51.8578 46.4818 48.2088 44.8166 48.2088 44.8166 
60.0051 55.7829 51.8578 46.4818 53.7845 48.2088 48.2088 43.2111 57.8555 
50 50 44.8166 51.8578 44.8166 46.4818 40.1706 55.7829 50 
48.2088 43.2111 50 46.4818 46.4818 44.8166 50 44.8166 48.2088 
44.8166 43.2111 38.7315 41.6631 37.344 46.4818 44.8166 86.4222 74.6879 
83.3262 77.463 89.6332 77.463 83.3262 77.463 80.3411 74.6879 89.6332 
80.3411 77.463 72.0123 83.3262 74.6879 80.3411 72.0123 83.3262 74.6879 
77.463 64.547 83.3262 74.6879 77.463 69.4326 83.3262 77.463 74.6879 
66.9452 80.3411 72.0123 80.3411 69.4326 83.3262 77.463 80.3411 74.6879 
77.463 72.0123 83.3262 72.0123 74.6879 66.9452 83.3262 77.463 80.3411 
72.0123 69.4326 64.547 80.3411 69.4326 83.3262 77.463 74.6879 69.4326 
74.6879 64.547 80.3411 69.4326 72.0123 69.4326 72.0123 64.547 74.6879 
66.9452 72.0123 62.2346 72.0123 66.9452 74.6879 64.547 77.463 69.4326 
72.0123 66.9452 74.6879 72.0123 72.0123 66.9452 60.0051 53.7845 72.0123 
66.9452 69.4326 64.547 72.0123 66.9452 69.4326 64.547 66.9452 60.0051 
72.0123 62.2346 74.6879 72.0123 69.4326 62.2346 66.9452 62.2346 66.9452 
62.2346 66.9452 64.547 66.9452 62.2346 64.547 60.0051 64.547 62.2346 
69.4326 62.2346 64.547 60.0051 69.4326 64.547 74.6879 64.547 72.0123 
64.547 69.4326 62.2346 64.547 60.0051 66.9452 60.0051 64.547 62.2346 
64.547 60.0051 69.4326 64.547 64.547 62.2346 64.547 62.2346 57.8555 
53.7845 55.7829 50 53.7845 50 64.547 57.8555 51.8578 46.4818 
66.9452 55.7829 69.4326 64.547 64.547 62.2346 62.2346 60.0051 66.9452 
60.0051 55.7829 51.8578 60.0051 53.7845 60.0051 53.7845 62.2346 53.7845 
57.8555 53.7845 55.7829 53.7845 57.8555 55.7829 64.547 60.0051 66.9452 
64.547 57.8555 53.7845 57.8555 53.7845 60.0051 55.7829 57.8555 51.8578 
57.8555 55.7829 60.0051 57.8555 57.8555 53.7845 55.7829 53.7845 62.2346 
55.7829 62.2346 57.8555 69.4326 64.547 69.4326 66.9452 69.4326 64.547 
62.2346 60.0051 60.0051 57.8555 57.8555 53.7845 60.0051 55.7829 57.8555 
53.7845 66.9452 64.547 51.8578 50 55.7829 53.7845 53.7845 51.8578 
53.7845 51.8578 57.8555 53.7845 51.8578 50 53.7845 51.8578 53.7845 
50 53.7845 50 55.7829 50 48.2088 44.8166 46.4818 44.8166 
55.7829 51.8578 64.547 60.0051 50 46.4818 48.2088 46.4818 51.8578 
46.4818 46.4818 44.8166 50 48.2088 53.7845 50 50 46.4818 
46.4818 41.6631 46.4818 43.2111 50 48.2088 57.8555 55.7829 50 
46.4818 53.7845 48.2088 53.7845 50 48.2088 44.8166 44.8166 41.6631 
48.2088 44.8166 46.4818 41.6631 46.4818 41.6631 53.7845 51.8578 51.8578 
50 46.4818 44.8166 38.7315 37.344 41.6631 38.7315 92.9635 86.4222 
89.6332 83.3262 80.3411 72.0123 89.6332 80.3411 74.6879 69.4326 86.4222 
80.3411 80.3411 77.463 83.3262 80.3411 74.6879 69.4326 77.463 74.6879 
83.3262 74.6879 72.0123 69.4326 86.4222 80.3411 69.4326 66.9452 77.463 
72.0123 74.6879 69.4326 74.6879 69.4326 77.463 72.0123 72.0123 69.4326 
77.463 72.0123 74.6879 72.0123 77.463 74.6879 74.6879 72.0123 66.9452 
62.2346 74.6879 69.4326 74.6879 66.9452 62.2346 57.8555 72.0123 66.9452 
77.463 69.4326 80.3411 77.463 72.0123 69.4326 57.8555 55.7829 69.4326 
62.2346 69.4326 66.9452 69.4326 66.9452 66.9452 64.547 80.3411 74.6879 
74.6879 69.4326 72.0123 66.9452 69.4326 64.547 69.4326 64.547 74.6879 
72.0123 60.0051 57.8555 72.0123 69.4326 69.4326 66.9452 64.547 62.2346 
57.8555 55.7829 62.2346 57.8555 62.2346 57.8555 64.547 62.2346 64.547 
62.2346 64.547 62.2346 69.4326 64.547 72.0123 66.9452 66.9452 62.2346 
62.2346 57.8555 72.0123 66.9452 64.547 62.2346 69.4326 66.9452 64.547 
62.2346 66.9452 64.547 74.6879 72.0123 72.0123 69.4326 62.2346 55.7829 
62.2346 57.8555 62.2346 60.0051 64.547 62.2346 64.547 60.0051 66.9452 
62.2346 64.547 62.2346 62.2346 57.8555 60.0051 55.7829 60.0051 55.7829 
60.0051 55.7829 57.8555 53.7845 60.0051 57.8555 62.2346 60.0051 69.4326 
66.9452 57.8555 53.7845 50 46.4818 55.7829 53.7845 60.0051 55.7829 
60.0051 57.8555 55.7829 53.7845 66.9452 60.0051 55.7829 51.8578 57.8555 
53.7845 55.7829 53.7845 53.7845 51.8578 60.0051 55.7829 55.7829 53.7845 
55.7829 53.7845 55.7829 51.8578 53.7845 51.8578 62.2346 60.0051 60.0051 
55.7829 64.547 62.2346 53.7845 50 55.7829 53.7845 55.7829 53.7845 
66.9452 64.547 51.8578 50 57.8555 55.7829 50 48.2088 66.9452 
64.547 55.7829 51.8578 57.8555 55.7829 51.8578 50 55.7829 53.7845 
53.7845 50 51.8578 48.2088 43.2111 41.6631 50 48.2088 64.547 
62.2346 51.8578 50 62.2346 60.0051 51.8578 50 62.2346 60.0051 
62.2346 60.0051 48.2088 46.4818 51.8578 50 48.2088 46.4818 50 
48.2088 44.8166 43.2111 48.2088 46.4818 57.8555 55.7829 46.4818 44.8166 
53.7845 51.8578 51.8578 50 46.4818 44.8166 43.2111 41.6631 46.4818 
44.8166 44.8166 41.6631 43.2111 41.6631 40.1706 38.7315 48.2088 46.4818 
48.2088 46.4818 40.1706 38.7315 77.463 74.6879 80.3411 77.463 86.4222 
83.3262 86.4222 80.3411 86.4222 80.3411 83.3262 77.463 80.3411 77.463 
69.4326 66.9452 86.4222 83.3262 83.3262 80.3411 72.0123 69.4326 77.463 
74.6879 72.0123 69.4326 83.3262 80.3411 80.3411 74.6879 77.463 74.6879 
77.463 74.6879 72.0123 69.4326 72.0123 69.4326 77.463 74.6879 77.463 
74.6879 66.9452 64.547 72.0123 69.4326 66.9452 64.547 69.4326 66.9452 
72.0123 69.4326 72.0123 69.4326 69.4326 64.547 72.0123 66.9452 57.8555 
55.7829 69.4326 66.9452 69.4326 66.9452 64.547 62.2346 72.0123 66.9452 
69.4326 66.9452 69.4326 64.547 66.9452 62.2346 69.4326 66.9452 80.3411 
77.463 72.0123 66.9452 77.463 74.6879 66.9452 64.547 69.4326 64.547 
66.9452 64.547 64.547 62.2346 69.4326 62.2346 60.0051 57.8555 66.9452 
64.547 69.4326 66.9452 62.2346 60.0051 69.4326 66.9452 69.4326 66.9452 
62.2346 60.0051 62.2346 60.0051 69.4326 66.9452 66.9452 64.547 62.2346 
60.0051 64.547 60.0051 62.2346 57.8555 72.0123 69.4326 69.4326 64.547 
62.2346 60.0051 62.2346 57.8555 64.547 62.2346 66.9452 62.2346 62.2346 
60.0051 64.547 62.2346 64.547 62.2346 66.9452 64.547 60.0051 57.8555 
60.0051 55.7829 62.2346 57.8555 60.0051 57.8555 55.7829 53.7845 64.547 
62.2346 57.8555 53.7845 60.0051 57.8555 48.2088 46.4818 53.7845 51.8578 
57.8555 53.7845 55.7829 53.7845 57.8555 55.7829 57.8555 55.7829 60.0051 
55.7829 51.8578 50 55.7829 53.7845 57.8555 55.7829 57.8555 55.7829 
53.7845 51.8578 55.7829 53.7845 55.7829 53.7845 53.7845 51.8578 57.8555 
55.7829 60.0051 57.8555 57.8555 55.7829 62.2346 60.0051 51.8578 50 
66.9452 64.547 50 48.2088 55.7829 53.7845 51.8578 50 66.9452 
64.547 51.8578 50 55.7829 53.7845 50 48.2088 46.4818 43.2111 
51.8578 50 55.7829 53.7845 51.8578 48.2088 44.8166 43.2111 53.7845 
51.8578 50 48.2088 51.8578 50 50 48.2088 53.7845 51.8578 
50 46.4818 48.2088 46.4818 50 48.2088 48.2088 46.4818 46.4818 
44.8166 50 46.4818 44.8166 43.2111 48.2088 46.4818 50 48.2088 
43.2111 41.6631 43.2111 41.6631 48.2088 46.4818 51.8578 50 51.8578 
50 44.8166 43.2111 44.8166 43.2111 44.8166 43.2111 55.7829 53.7845 
46.4818 44.8166 40.1706 38.7315 80.3411 77.463 86.4222 83.3262 77.463 
74.6879 83.3262 77.463 80.3411 77.463 72.0123 69.4326 74.6879 72.0123 
83.3262 80.3411 74.6879 69.4326 80.3411 77.463 72.0123 69.4326 66.9452 
62.2346 64.547 62.2346 80.3411 77.463 80.3411 77.463 74.6879 72.0123 
74.6879 69.4326 72.0123 69.4326 80.3411 77.463 77.463 74.6879 77.463 
74.6879 74.6879 72.0123 83.3262 80.3411 64.547 60.0051 62.2346 60.0051 
66.9452 64.547 72.0123 69.4326 60.0051 57.8555 69.4326 66.9452 66.9452 
64.547 66.9452 64.547 64.547 62.2346 80.3411 74.6879 77.463 74.6879 
62.2346 60.0051 64.547 62.2346 77.463 74.6879 64.547 62.2346 69.4326 
66.9452 74.6879 72.0123 66.9452 64.547 55.7829 53.7845 66.9452 64.547 
72.0123 69.4326 66.9452 64.547 66.9452 64.547 69.4326 66.9452 69.4326 
66.9452 77.463 74.6879 69.4326 66.9452 64.547 62.2346 64.547 60.0051 
60.0051 57.8555 66.9452 64.547 60.0051 57.8555 66.9452 64.547 51.8578 
50 62.2346 60.0051 69.4326 64.547 60.0051 57.8555 62.2346 60.0051 
60.0051 57.8555 57.8555 55.7829 62.2346 60.0051 48.2088 46.4818 60.0051 
57.8555 66.9452 64.547 57.8555 55.7829 60.0051 57.8555 62.2346 60.0051 
53.7845 51.8578 62.2346 60.0051 62.2346 60.0051 66.9452 64.547 74.6879 
72.0123 57.8555 55.7829 
