# vtk DataFile Version 4.1
vtk output
ASCII
DATASET POLYDATA
POINTS 1300 float
16125 47875 54078.1 16125 45354.6 51242.2 16558.1 46177.7 51721.1 
19218.8 43492.2 45952.9 17569.2 45157.1 49529.2 13031.2 42779.6 44023.4 
18402.7 43858.4 46609.6 17514.1 41945.3 41703.1 18974 43602 46150 
24375 40822.3 46343.8 13642.9 42842.7 45113 8648.44 38645.3 41187.5 
22322.6 41878.6 46270.1 24375 39156.8 40929.7 18064.9 42267.7 42630.8 
19734.4 40558.3 38867.2 10208.5 39601.9 42994.6 7305.75 34984.4 44281.2 
8987.1 38724.6 41314.9 6275.53 36273.4 36546.9 18966.4 41344.6 40598.4 
15351.6 41230.7 35257.8 23430.9 40408.9 43386.2 29089.9 35242.2 44023.4 
19667.6 40952.1 39064.4 22054.7 40506.7 33968.8 7916.56 35545.3 43793.7 
6070.31 30085.9 43279.9 6547.16 36212 36680.6 4921.5 33953.1 32937.5 
27315.4 36870.1 43127.7 30562.5 33953.1 39217.8 7362.67 33907.5 43639.5 
7617.19 29570.3 49352.9 28681.4 35801.7 40874 28954.8 36531.2 36804.7 
7474.36 37166.8 38441.6 5039.06 32148.4 39172.4 16977.7 41270.6 36513.5 
17929.7 41230.7 30875 6304.2 30359.8 43481.1 5248.41 24671.9 44023.4 
21435.2 40852.2 34300 22570.3 41231.7 29328.1 15839.4 41242.6 35634.5 
9937.5 40000.4 34742.2 5585.63 32454.9 38708.7 4207.87 27507.8 38351.6 
5260.57 33949.4 33695.5 4207.87 29570.3 31132.8 28557.5 35730.5 43754.7 
30820.3 28952.6 43765.6 21868.8 40610.4 34068.1 26437.5 39157.8 34226.6 
15497.9 41234.3 35370.8 12515.6 41224.5 30617.2 30128.2 34347.5 39243.1 
32163 32148.4 35257.8 17191.9 41244.6 31596.5 16382.8 41234.8 27007.8 
5732.99 26337.8 44381.7 6070.31 22351.6 47938.1 11188.7 40138.9 34513.9 
7492.41 38593.8 31390.6 29087.6 36334.3 37398.1 30430.5 36531.2 33195.3 
4460.53 29755 31170.4 4207.87 26476.6 29070.3 4769.19 31568.9 31601.2 
4207.87 29828.1 26492.2 30738.6 33687.8 38047.4 31651.5 27765.6 38351.6 
29951.8 35941.2 34713.8 31135.9 32921.9 31132.8 22661.8 41237.9 29691.9 
24194.5 41687.5 24945.3 16280.8 41237.7 27321.2 15093.8 41233.8 22882.8 
12704.1 41067.7 30747.4 10632.6 40656.2 27007.8 4370.4 27479.7 29191.7 
4736.91 25445.3 24687.5 29735.3 29850.8 44276.1 29531.2 24414.1 45601.2 
31259.1 30384.3 37787.7 31652.5 28281.2 35257.8 30286.9 36354.2 33650.9 
29531.2 36821 28554.7 4256.65 26777.5 29106.7 4718.35 23382.8 30101.6 
23769.9 41356.8 25685.5 24117.2 40192.2 21078.1 4619.65 26212.4 27633.7 
5444.34 22351.6 26750 4922.22 25435.9 25086 6286.88 23898.4 21851.6 
4394.02 29791.5 26674.4 4263.56 28539.1 23398.4 15630.8 41306.5 23539.8 
16640.6 41745.2 19015.6 29757.9 36681 30083.5 27213 40140.6 27523.4 
31339.8 29185.6 35732.1 30626.4 28281.2 30875 31341.8 28104.7 38226.4 
30420.2 23640.6 38867.2 4373.8 29230.1 24148 4724.53 30343.8 20562.5 
15254.9 41255.5 23079.9 11484.4 40656.2 23598.5 29512 25847.7 44736.1 
28883.6 21062.5 42734.4 6358.75 24050.9 21978.1 7713.09 23125 19531.2 
24078.2 39844.8 21830.6 24375 37620.2 18500 29318.1 24597.4 45441.5 
28067.9 21320.3 47117.2 28820.3 22399.9 44341.3 28179.3 20031.2 44796.9 
30508.5 24550.1 38405.4 29273.4 21527.6 36804.7 30599.6 33556.6 31450 
29589 31632.8 26492.2 30954.6 28697.2 33109.3 29789.1 24622.4 31906.2 
4819.51 23585.7 29992.4 5739.28 19257.8 31132.8 29436.5 36673 28720.8 
28028.7 36273.4 24171.9 24105.5 40087.9 21303.9 20835.8 40914.1 17726.6 
24191 38999.4 20565 26456.1 35500 20562.5 5481.26 22888.7 26988.6 
7298.53 18742.2 26750 11254 40779.7 28129.7 7492.41 38593.8 27007.8 
24060.7 38277.4 19099.2 22695.1 38078.1 16437.5 5927.79 24466.4 22910.5 
6070.31 26686.9 19273.4 16173.1 41529.7 19380.5 16125 41477.1 15148.4 
4775.06 30115.2 21025.3 5761.97 30859.4 16953.1 4536.53 30466.9 28546.6 
4705.97 33179.7 25203.1 28371.6 20741.8 44660.2 27210.9 17917.2 41960.9 
5853.23 19502.4 31003.5 6934.5 16421.9 31648.4 29923.3 25548.2 31834 
28500 23376.6 29070.3 6462.6 20649.6 26859.8 8216.35 19515.6 23656.2 
25777.1 36083.9 20382.7 25974.5 32921.9 19273.4 7694.94 23252.3 19831 
10195.3 22248.4 16953.1 23862.4 40903.1 24529 21023.4 42260.9 21593.8 
29354.2 21936.2 37381.3 27468.8 18617.4 37835.9 23432.5 38185.7 17874.8 
23601.6 34468.8 15873.4 8031.85 19894 24015.9 10280.9 20031.2 20046.9 
28788.6 20940.6 37517.7 27143.9 19000 33968.8 15142.1 41240.2 22941.9 
12257.8 40196.3 19789.1 7707.63 23163.2 19621.2 8024.53 25445.3 16437.5 
8209.85 38715.7 26861.5 5755.78 36531.2 25203.1 5633.37 30274.1 18089.6 
7310.91 28539.1 14890.6 4758.56 32902.6 25283.7 5039.06 34515.2 22625 
5830.75 30911.1 17334.9 6795.28 33695.3 14890.6 6885.31 16830.1 31803 
7994.62 14359.4 32937.5 6730.52 29358.1 15829.8 7359.38 30051.9 13601.6 
27930.5 19668.5 43634.4 25921.9 15067.8 45312.5 9356.29 22866.9 17575.6 
10453.1 24156.2 14204.8 28606.8 23891.6 29383.4 26517.9 22867.2 25976.6 
6953.79 33098.3 14928.8 8022.47 34726.6 12828.1 6919.75 16544.4 31694.8 
8964 15390.6 29070.3 27472.1 18901.2 37786.1 24947.3 16164.1 38093.8 
25688.5 33703.7 19300.7 24425.5 30601.6 16695.3 7331.12 28566.3 15002.8 
8906.25 26685.9 13343.8 27255.8 19514.4 34093.8 25664.1 18619.5 30359.4 
11997.1 40565.4 23272.5 7875 38851.6 22270.3 10559.7 39949.7 22622.5 
9679.69 39473.4 20562.5 24619.3 31475.2 17110 23373.7 30859.4 14632.8 
7355.46 29741.7 13948.4 8903.16 29570.3 10507.8 13375.6 40481.8 20410.4 
13031.2 39625 16344.7 27177.5 19154.3 34006.3 24543.1 16421.9 32937.5 
7395.57 15693.6 32324.9 6585.94 14824.5 36546.9 26003 15980.7 44414.6 
23916.1 13070.3 44023.4 7955.02 14678.9 32986 9894.19 11781.2 35515.6 
27237.8 23514.5 26800.9 26437.5 24929.7 23347.9 28532 23531.1 29164.2 
26505.6 20804.7 28554.7 8885 39107.2 22070.5 6843.75 37304.7 19761.2 
8002.05 34548.1 13359.2 9937.5 36592.1 12570.3 9312.46 12650.5 34756.7 
8390.62 12424.8 37578.1 12914.5 39440.3 16672.2 12515.6 38593.8 14317.3 
8796.63 13421.4 34083.9 11484.4 11770.9 32937.5 23747.3 31044.1 15375.9 
22570.3 27406.8 14375 25732.9 18688.2 31042.8 23085.9 17384 28039.1 
9703.71 36084 12530.6 12000 36904.6 10765.6 23376 30824 14674.3 
21815.4 29828.1 11796.9 24118.1 13495.2 44201.2 21333.8 10492.2 44539.1 
26796.6 24867.5 24383.1 27001.6 28023.4 22109.4 6842.82 33516.2 14902.1 
6826.22 36015.6 16953.1 9815.09 39345.4 20697 8906.25 38335.9 18099.9 
26907.3 26571.7 23155.3 25460.9 26476.6 20304.7 8350.82 12532.3 37249.5 
6328.12 12757.8 40671.9 23716.4 17916.3 28350.6 22312.5 17794.5 25718.8 
22923.4 28498 14675.3 23343.8 25911.4 16695.3 22534.4 27812.1 14299.5 
20825.4 25703.1 12570.3 7743.93 12600 38276.2 8852.62 10492.2 41445.3 
9187.78 38479.9 18424 9164.06 37417.1 15406.2 21474.8 26504.5 13227.4 
20250 27480 9992.19 23275.1 17543.7 28132.5 21023.4 14829.6 29843.8 
27034.8 24136.9 25688.7 28510.3 27765.6 25203.1 22409.9 17779.6 26140.6 
20300.5 17453.1 23656.2 22341.7 17790 25845.3 22570.3 19154.7 23656.2 
22906.4 17831.5 26980.4 19992.2 15540.2 26750 21026.7 15050.2 29780.6 
19476.6 13480.8 30875 20933.3 17551.1 24401.6 18187.5 15888.7 24687.5 
29424.7 31865.9 26819.8 28500 30859.4 23849.1 20312.4 17547 23771.1 
17718.3 17710.9 21335.9 22722 19052.4 24278 24225.5 21835.9 22625 
19680.4 14026 30368.3 16171.4 12554.7 30617.2 23687.5 21306.2 22576.5 
24022.3 23125 20562.5 17785.5 13231.5 30502.7 16898.4 11779.2 33195.3 
25888.7 33156.4 19281.6 26956.2 30601.6 20820.3 18505.6 13533.3 30451.6 
16640.6 13775.7 28039.1 23814.7 21997.3 21811.2 21848.4 21835.9 19015.6 
17282.3 12167.5 32829.3 17929.7 11751.3 35773.4 22615.8 19124 23842.8 
21023.4 19638.3 21078.1 21071.2 19676.3 21126.5 19734.4 20181.8 18757.8 
22030.1 21959.8 19140.7 20250 22093.8 16267.3 16393.5 46822.6 52616.8 
18445.3 45109.2 52531.2 16254.9 45601.5 51385.8 14187.3 45039.1 48921.9 
17815.7 45730 52207.1 20250 44281.1 49953.1 14301.4 44897.3 49095 
13031.2 44313.1 47632.8 20085.5 44284.6 50065.3 21539.1 43289 48664.1 
14887.4 45108.6 49782.2 15965.2 43492.2 44281.2 19145.3 43525.2 46012 
20796.6 42203.1 44281.2 13143.1 42653.9 44239.3 11951.5 41687.5 42218.8 
13413 42755.9 44711.1 14835.9 42721.8 42476.6 12043.2 41708 42432.2 
10917.2 40656.2 40671.9 12373.2 41991.7 42974.3 13546.9 41698.8 40671.9 
10931 40718.5 41090.8 9679.69 39676.6 40156.2 24165.5 40752.9 46247.9 
25972.4 39367.2 46085.9 9927.91 39878.5 40155.9 9039.28 39109.4 38351.6 
13518.7 41779.7 41185.2 15609.4 41711.2 39898.4 24091.8 39532.4 41666.6 
22828.1 39625 39065.2 14877.7 41667.9 40096.1 15609.4 41230.7 38093.8 
25700.8 39488.7 45985.3 27517.2 37562.5 45054.7 8349.07 36568.7 43321.3 
6585.94 35031.8 41960.9 24244.7 39329.5 41268.7 26854.1 37562.5 41445.3 
23409.4 39582.4 40261.9 24632.8 38668 38351.6 22771.9 39628.2 39199.7 
21796.9 39697.2 37835.9 24302.5 38976.7 38655.4 24632.8 39109.4 36837.7 
7045.15 32843.2 43592 5777.44 32148.4 41960.9 28930.2 35388.7 43942.8 
30103.6 33953.1 42476.6 20328.7 40875.9 36338.4 18960.9 40715 34226.6 
26071.3 38092.7 41392.3 27005.7 37304.7 39640.6 19547.9 40842.1 34676.9 
19734.4 41220.3 32164.1 6140.44 30168.1 43340.2 5235 28023.4 41960.9 
29829.3 34166.8 43029.9 31078.1 31890.6 42763.2 6152.19 33868.5 38628.6 
4705.97 31632.8 34742.2 28994.6 36472.2 36982.7 27468.8 37929.6 36289.1 
30078.9 33917.7 42578.2 30926.5 32921.9 41187.5 24422.2 40045.2 33410 
25664.1 39991.1 32421.9 13684.7 41135.5 31797 14320.3 41230.7 29328.1 
15155.7 41501.8 39335.3 13546.9 41224.5 37578.1 17756.8 41264.5 30900.7 
18960.9 41429.7 28842.4 13359.5 40685 35837.6 10968.8 40197.3 37320.3 
5510.04 25571.5 44216.9 4719.37 24929.7 41703.1 5258.82 32413.7 36666 
4213.03 30343.8 36546.9 30821 32288.6 42578.6 31650.5 30343.8 40929.7 
14004.3 41204.7 29633.8 13289.1 41228.6 26750 31364.4 33186.1 36572.3 
31647.4 33953.1 34484.4 26073.8 39330.2 33861.7 27726.6 38677.3 33195.3 
18888.5 41429.3 29249.6 20765.6 41745.2 27781.2 12619.1 40544.1 35074.2 
12257.8 40731.5 32937.5 5893.45 22875.1 46854.6 5727.94 20804.7 47117.2 
4283.67 29625.7 31144.1 4207.87 26734.4 31390.6 31812.5 32295.1 35537.4 
31655.6 30601.6 33968.8 31418.6 30575.9 41338.8 31593.8 28251.3 40671.9 
16352.2 41235.6 27101.8 18445.3 41745.2 26492.2 8053.51 38495.9 32284.6 
6328.12 36920 31906.2 4538.49 28189.8 38148.5 4207.87 25703.1 37320.3 
[...]
CELL_DATA 1299
SCALARS radius float
LOOKUP_TABLE default
86.4222 96.4176 80.3411 92.9635 80.3411 89.6332 80.3411 86.4222 74.6879 
89.6332 77.463 83.3262 69.4326 86.4222 74.6879 86.4222 72.0123 83.3262 
72.0123 83.3262 69.4326 80.3411 69.4326 80.3411 66.9452 74.6879 62.2346 
77.463 69.4326 77.463 69.4326 72.0123 62.2346 74.6879 64.547 80.3411 
69.4326 80.3411 72.0123 66.9452 57.8555 74.6879 69.4326 77.463 66.9452 
72.0123 62.2346 74.6879 64.547 74.6879 64.547 72.0123 62.2346 74.6879 
62.2346 72.0123 62.2346 77.463 69.4326 62.2346 53.7845 69.4326 55.7829 
69.4326 57.8555 69.4326 62.2346 72.0123 62.2346 69.4326 62.2346 66.9452 
57.8555 72.0123 64.547 74.6879 64.547 66.9452 55.7829 66.9452 55.7829 
72.0123 62.2346 66.9452 57.8555 64.547 53.7845 64.547 57.8555 69.4326 
57.8555 64.547 53.7845 60.0051 53.7845 64.547 55.7829 72.0123 60.0051 
60.0051 51.8578 64.547 53.7845 64.547 60.0051 62.2346 57.8555 69.4326 
60.0051 66.9452 57.8555 55.7829 50 62.2346 55.7829 64.547 57.8555 
62.2346 53.7845 62.2346 55.7829 62.2346 50 62.2346 53.7845 60.0051 
53.7845 57.8555 50 60.0051 51.8578 60.0051 50 60.0051 51.8578 
60.0051 53.7845 57.8555 53.7845 57.8555 50 64.547 60.0051 60.0051 
51.8578 69.4326 60.0051 60.0051 53.7845 55.7829 44.8166 57.8555 51.8578 
57.8555 50 55.7829 50 53.7845 48.2088 66.9452 62.2346 60.0051 
51.8578 55.7829 46.4818 53.7845 48.2088 57.8555 51.8578 66.9452 57.8555 
51.8578 46.4818 55.7829 50 55.7829 48.2088 62.2346 57.8555 53.7845 
44.8166 50 44.8166 53.7845 50 57.8555 48.2088 51.8578 46.4818 
55.7829 50 48.2088 43.2111 48.2088 43.2111 53.7845 46.4818 53.7845 
50 50 46.4818 55.7829 51.8578 64.547 55.7829 62.2346 57.8555 
51.8578 46.4818 51.8578 46.4818 64.547 57.8555 53.7845 48.2088 48.2088 
41.6631 53.7845 50 46.4818 38.7315 51.8578 44.8166 53.7845 48.2088 
60.0051 51.8578 46.4818 43.2111 43.2111 38.7315 60.0051 57.8555 44.8166 
41.6631 50 43.2111 53.7845 48.2088 44.8166 43.2111 48.2088 41.6631 
51.8578 46.4818 46.4818 43.2111 46.4818 43.2111 60.0051 53.7845 44.8166 
37.344 41.6631 37.344 51.8578 44.8166 48.2088 44.8166 44.8166 40.1706 
40.1706 36.0062 57.8555 55.7829 41.6631 37.344 50 44.8166 50 
44.8166 48.2088 40.1706 46.4818 41.6631 50 46.4818 46.4818 41.6631 
44.8166 40.1706 53.7845 48.2088 41.6631 40.1706 44.8166 41.6631 44.8166 
38.7315 43.2111 37.344 41.6631 36.0062 51.8578 48.2088 43.2111 41.6631 
41.6631 37.344 40.1706 38.7315 43.2111 37.344 40.1706 34.7163 38.7315 
36.0062 100 92.9635 89.6332 77.463 96.4176 83.3262 80.3411 74.6879 
86.4222 77.463 83.3262 69.4326 83.3262 72.0123 83.3262 72.0123 86.4222 
74.6879 74.6879 69.4326 77.463 66.9452 72.0123 66.9452 77.463 69.4326 
69.4326 62.2346 74.6879 66.9452 77.463 66.9452 72.0123 66.9452 72.0123 
64.547 77.463 72.0123 74.6879 66.9452 74.6879 69.4326 69.4326 64.547 
72.0123 66.9452 69.4326 60.0051 72.0123 64.547 77.463 72.0123 72.0123 
64.547 74.6879 69.4326 64.547 62.2346 69.4326 62.2346 74.6879 62.2346 
66.9452 60.0051 66.9452 60.0051 66.9452 60.0051 69.4326 62.2346 69.4326 
66.9452 74.6879 66.9452 74.6879 69.4326 60.0051 51.8578 69.4326 64.547 
66.9452 60.0051 64.547 60.0051 66.9452 57.8555 64.547 57.8555 72.0123 
62.2346 72.0123 66.9452 57.8555 55.7829 66.9452 62.2346 64.547 60.0051 
64.547 60.0051 72.0123 62.2346 62.2346 57.8555 64.547 57.8555 62.2346 
57.8555 60.0051 57.8555 66.9452 62.2346 62.2346 53.7845 62.2346 57.8555 
72.0123 62.2346 62.2346 55.7829 57.8555 53.7845 55.7829 51.8578 60.0051 
55.7829 62.2346 57.8555 62.2346 55.7829 64.547 62.2346 57.8555 53.7845 
60.0051 51.8578 57.8555 50 64.547 62.2346 66.9452 64.547 69.4326 
64.547 55.7829 53.7845 53.7845 50 62.2346 60.0051 69.4326 62.2346 
57.8555 55.7829 57.8555 51.8578 60.0051 57.8555 51.8578 48.2088 55.7829 
48.2088 60.0051 57.8555 62.2346 57.8555 60.0051 55.7829 57.8555 51.8578 
55.7829 51.8578 51.8578 48.2088 55.7829 53.7845 51.8578 48.2088 53.7845 
46.4818 62.2346 57.8555 53.7845 51.8578 55.7829 51.8578 51.8578 48.2088 
53.7845 50 53.7845 48.2088 51.8578 48.2088 60.0051 57.8555 55.7829 
51.8578 50 46.4818 55.7829 53.7845 60.0051 55.7829 48.2088 44.8166 
51.8578 48.2088 51.8578 50 46.4818 44.8166 51.8578 48.2088 50 
48.2088 50 46.4818 62.2346 60.0051 46.4818 43.2111 60.0051 55.7829 
50 48.2088 46.4818 43.2111 57.8555 55.7829 44.8166 43.2111 64.547 
60.0051 44.8166 41.6631 48.2088 46.4818 50 43.2111 50 46.4818 
41.6631 40.1706 43.2111 41.6631 46.4818 44.8166 51.8578 48.2088 51.8578 
48.2088 50 46.4818 40.1706 37.344 50 48.2088 41.6631 40.1706 
43.2111 40.1706 48.2088 46.4818 48.2088 46.4818 40.1706 34.7163 43.2111 
40.1706 46.4818 44.8166 48.2088 44.8166 38.7315 36.0062 46.4818 44.8166 
41.6631 40.1706 50 46.4818 38.7315 36.0062 38.7315 37.344 38.7315 
36.0062 40.1706 38.7315 48.2088 44.8166 37.344 34.7163 36.0062 34.7163 
86.4222 83.3262 89.6332 86.4222 77.463 72.0123 83.3262 77.463 80.3411 
74.6879 72.0123 69.4326 80.3411 72.0123 77.463 72.0123 74.6879 69.4326 
74.6879 66.9452 72.0123 66.9452 80.3411 77.463 83.3262 77.463 80.3411 
74.6879 80.3411 77.463 77.463 72.0123 69.4326 66.9452 66.9452 62.2346 
74.6879 69.4326 66.9452 64.547 69.4326 64.547 64.547 60.0051 72.0123 
69.4326 64.547 62.2346 69.4326 66.9452 66.9452 64.547 64.547 62.2346 
69.4326 64.547 72.0123 66.9452 57.8555 55.7829 69.4326 64.547 66.9452 
60.0051 62.2346 55.7829 64.547 62.2346 60.0051 57.8555 64.547 62.2346 
62.2346 57.8555 69.4326 66.9452 69.4326 66.9452 66.9452 64.547 60.0051 
55.7829 66.9452 62.2346 77.463 72.0123 62.2346 60.0051 64.547 62.2346 
64.547 62.2346 55.7829 51.8578 62.2346 60.0051 64.547 62.2346 66.9452 
64.547 66.9452 64.547 60.0051 55.7829 60.0051 55.7829 62.2346 60.0051 
66.9452 62.2346 57.8555 53.7845 66.9452 62.2346 55.7829 53.7845 60.0051 
57.8555 64.547 62.2346 64.547 60.0051 55.7829 51.8578 60.0051 53.7845 
57.8555 55.7829 53.7845 51.8578 57.8555 53.7845 66.9452 64.547 55.7829 
53.7845 51.8578 48.2088 57.8555 53.7845 57.8555 55.7829 55.7829 51.8578 
55.7829 53.7845 55.7829 53.7845 57.8555 53.7845 55.7829 51.8578 57.8555 
55.7829 53.7845 50 53.7845 51.8578 53.7845 50 50 48.2088 
51.8578 50 53.7845 51.8578 51.8578 50 57.8555 55.7829 53.7845 
50 51.8578 50 51.8578 50 50 48.2088 50 48.2088 
60.0051 57.8555 50 48.2088 51.8578 50 50 48.2088 50 
46.4818 51.8578 50 62.2346 57.8555 48.2088 46.4818 48.2088 46.4818 
48.2088 46.4818 66.9452 64.547 51.8578 48.2088 44.8166 41.6631 48.2088 
46.4818 44.8166 43.2111 57.8555 55.7829 43.2111 41.6631 48.2088 46.4818 
44.8166 43.2111 50 46.4818 48.2088 46.4818 55.7829 53.7845 40.1706 
38.7315 48.2088 46.4818 44.8166 41.6631 43.2111 41.6631 55.7829 53.7845 
46.4818 44.8166 48.2088 46.4818 46.4818 44.8166 37.344 34.7163 41.6631 
40.1706 37.344 36.0062 36.0062 34.7163 37.344 33.4726 43.2111 40.1706 
41.6631 40.1706 40.1706 38.7315 48.2088 46.4818 50 48.2088 43.2111 
41.6631 38.7315 37.344 40.1706 38.7315 36.0062 33.4726 37.344 36.0062 
92.9635 89.6332 77.463 72.0123 80.3411 77.463 74.6879 66.9452 74.6879 
72.0123 80.3411 77.463 77.463 74.6879 83.3262 77.463 80.3411 77.463 
80.3411 74.6879 74.6879 72.0123 69.4326 66.9452 80.3411 77.463 64.547 
60.0051 62.2346 60.0051 66.9452 62.2346 74.6879 69.4326 74.6879 72.0123 
64.547 60.0051 62.2346 57.8555 62.2346 60.0051 72.0123 69.4326 66.9452 
62.2346 72.0123 66.9452 64.547 62.2346 62.2346 60.0051 60.0051 57.8555 
62.2346 60.0051 66.9452 64.547 64.547 62.2346 64.547 57.8555 69.4326 
64.547 69.4326 66.9452 62.2346 60.0051 64.547 62.2346 69.4326 66.9452 
66.9452 64.547 55.7829 53.7845 74.6879 72.0123 53.7845 51.8578 66.9452 
64.547 62.2346 57.8555 66.9452 62.2346 62.2346 57.8555 60.0051 57.8555 
60.0051 57.8555 62.2346 60.0051 55.7829 53.7845 57.8555 53.7845 62.2346 
60.0051 64.547 62.2346 57.8555 55.7829 57.8555 55.7829 60.0051 57.8555 
55.7829 53.7845 64.547 62.2346 55.7829 53.7845 53.7845 51.8578 57.8555 
55.7829 60.0051 57.8555 55.7829 51.8578 62.2346 57.8555 55.7829 53.7845 
51.8578 50 64.547 60.0051 55.7829 53.7845 53.7845 50 53.7845 
51.8578 53.7845 51.8578 53.7845 50 60.0051 57.8555 53.7845 51.8578 
66.9452 62.2346 51.8578 50 57.8555 55.7829 53.7845 51.8578 64.547 
62.2346 55.7829 53.7845 48.2088 44.8166 64.547 62.2346 50 48.2088 
48.2088 46.4818 51.8578 50 51.8578 50 51.8578 50 50 
48.2088 57.8555 55.7829 60.0051 57.8555 51.8578 50 60.0051 57.8555 
53.7845 51.8578 53.7845 51.8578 57.8555 55.7829 44.8166 41.6631 43.2111 
41.6631 48.2088 46.4818 46.4818 44.8166 48.2088 46.4818 50 48.2088 
43.2111 41.6631 48.2088 46.4818 50 48.2088 50 48.2088 34.7163 
33.4726 43.2111 41.6631 50 48.2088 43.2111 41.6631 53.7845 50 
46.4818 44.8166 50 48.2088 51.8578 50 44.8166 43.2111 38.7315 
37.344 41.6631 38.7315 38.7315 37.344 38.7315 37.344 40.1706 38.7315 
36.0062 34.7163 40.1706 38.7315 46.4818 44.8166 38.7315 37.344 36.0062 
34.7163 43.2111 41.6631 37.344 36.0062 37.344 36.0062 38.7315 37.344 
37.344 36.0062 46.4818 44.8166 41.6631 40.1706 34.7163 33.4726 92.9635 
89.6332 80.3411 77.463 72.0123 69.4326 69.4326 66.9452 74.6879 72.0123 
74.6879 72.0123 77.463 74.6879 83.3262 80.3411 77.463 74.6879 72.0123 
69.4326 72.0123 69.4326 69.4326 66.9452 77.463 74.6879 69.4326 66.9452 
72.0123 66.9452 77.463 74.6879 69.4326 66.9452 72.0123 69.4326 69.4326 
66.9452 72.0123 69.4326 66.9452 64.547 66.9452 64.547 72.0123 69.4326 
60.0051 57.8555 69.4326 66.9452 64.547 62.2346 64.547 62.2346 69.4326 
66.9452 66.9452 64.547 69.4326 66.9452 72.0123 69.4326 72.0123 69.4326 
66.9452 64.547 69.4326 66.9452 60.0051 57.8555 62.2346 60.0051 57.8555 
55.7829 60.0051 57.8555 66.9452 64.547 60.0051 57.8555 60.0051 57.8555 
62.2346 60.0051 64.547 62.2346 64.547 62.2346 69.4326 66.9452 64.547 
62.2346 53.7845 51.8578 64.547 62.2346 55.7829 53.7845 60.0051 57.8555 
64.547 62.2346 57.8555 55.7829 60.0051 57.8555 64.547 62.2346 62.2346 
60.0051 69.4326 66.9452 57.8555 55.7829 57.8555 55.7829 62.2346 60.0051 
57.8555 53.7845 57.8555 55.7829 60.0051 57.8555 50 48.2088 55.7829 
53.7845 62.2346 60.0051 57.8555 55.7829 55.7829 53.7845 51.8578 50 
53.7845 51.8578 51.8578 50 55.7829 53.7845 50 48.2088 55.7829 
53.7845 64.547 62.2346 60.0051 57.8555 50 48.2088 51.8578 50 
53.7845 51.8578 50 48.2088 55.7829 53.7845 46.4818 44.8166 53.7845 
51.8578 55.7829 53.7845 
