<VTKFile type="PolyData" version="1.0" byte_order="LittleEndian" header_type="UInt64">
  <PolyData>
    <Piece NumberOfPoints="201" NumberOfLines="400">
      <PointData Scalars="Scalars_">
        <DataArray type="Float32" Name="Scalars_" format="ascii">
     -84.421448      -84.421211      -84.420746      -84.420074      -84.419220      -84.418213      -84.417122      -84.416046      -84.415039      -84.414131      -84.413322      -84.412621      -84.412025      -84.411522      -84.411102      -84.410767      -84.410507      -84.410301      -84.410156      -84.410057      -84.410004      -84.409988      -84.410004      -84.410049      -84.410126      -84.410225      -84.410347      -84.410484      -84.410637      -84.410812      -84.411003      -84.411209      -84.411430      -84.411667      -84.411911      -84.412178      -84.412453      -84.412735      -84.413040      -84.413345      -84.413673      -84.414009      -84.414360      -84.414726      -84.415100      -84.415482      -84.415886      -84.416298      -84.416725      -84.417160      -84.417610      -84.418076      -84.418549      -84.419037      -84.419540      -84.420059      -84.420586      -84.421127      -84.421677      -84.422249      -84.422829      -84.423416      -84.424019      -84.424637      -84.425262      -84.425903      -84.426552      -84.427216      -84.427887      -84.428574      -84.429260      -84.429962      -84.430672      -84.431389      -84.432106      -84.432838      -84.433563      -84.434303      -84.435036      -84.435776      -84.436508      -84.437248      -84.437981      -84.438721      -84.439445      -84.440170      -84.440895      -84.441612      -84.442322      -84.443024      -84.443718      -84.444405      -84.445084      -84.445755      -84.446419      -84.447067      -84.447708      -84.448334      -84.448952      -84.449562      -84.450157      -84.450737      -84.451309      -84.451866      -84.452408      -84.452942      -84.453461      -84.453972      -84.454460      -84.454941      -84.455406      -84.455856      -84.456299      -84.456726      -84.457138      -84.457542      -84.457924      -84.458298      -84.458664      -84.459015      -84.459351      -84.459671      -84.459984      -84.460281      -84.460571      -84.460854      -84.461113      -84.461372      -84.461617      -84.461845      -84.462074      -84.462288      -84.462494      -84.462685      -84.462875      -84.463051      -84.463219      -84.463379      -84.463531      -84.463676      -84.463814      -84.463943      -84.464073      -84.464188      -84.464302      -84.464409      -84.464508      -84.464600      -84.464691      -84.464775      -84.464851      -84.464928      -84.464996      -84.465065      -84.465126      -84.465187      -84.465240      -84.465286      -84.465332      -84.465378      -84.465416      -84.465446      -84.465485      -84.465508      -84.465530      -84.465553      -84.465569      -84.465584      -84.465591      -84.465591      -84.465591      -84.465591      -84.465576      -84.465561      -84.465538      -84.465515      -84.465485      -84.465446      -84.465401      -84.465347      -84.465286      -84.465225      -84.465149      -84.465073      -84.464981      -84.464890      -84.464790      -84.464684      -84.464569      -84.464447      -84.464325      -84.464195      -84.464073      -84.463943      -84.463821      -84.463707      -84.463600      -84.463509      -84.463425      -84.463364      -84.463333         </DataArray>
      </PointData>
      <Points>
        <DataArray type="Float32" Name="Points" NumberOfComponents="3" format="ascii">
-20000.000000 2500.000000 2500.000000
-19900.000000 2500.000000 2500.000000
-19800.000000 2500.000000 2500.000000
-19700.000000 2500.000000 2500.000000
-19600.000000 2500.000000 2500.000000
-19500.000000 2500.000000 2500.000000
-19400.000000 2500.000000 2500.000000
-19300.000000 2500.000000 2500.000000
-19200.000000 2500.000000 2500.000000
-19100.000000 2500.000000 2500.000000
-19000.000000 2500.000000 2500.000000
-18900.000000 2500.000000 2500.000000
-18800.000000 2500.000000 2500.000000
-18700.000000 2500.000000 2500.000000
-18600.000000 2500.000000 2500.000000
-18500.000000 2500.000000 2500.000000
-18400.000000 2500.000000 2500.000000
-18300.000000 2500.000000 2500.000000
-18200.000000 2500.000000 2500.000000
-18100.000000 2500.000000 2500.000000
-18000.000000 2500.000000 2500.000000
-17900.000000 2500.000000 2500.000000
-17800.000000 2500.000000 2500.000000
-17700.000000 2500.000000 2500.000000
-17600.000000 2500.000000 2500.000000
-17500.000000 2500.000000 2500.000000
-17400.000000 2500.000000 2500.000000
-17300.000000 2500.000000 2500.000000
-17200.000000 2500.000000 2500.000000
-17100.000000 2500.000000 2500.000000
-17000.000000 2500.000000 2500.000000
-16900.000000 2500.000000 2500.000000
-16800.000000 2500.000000 2500.000000
-16700.000000 2500.000000 2500.000000
-16600.000000 2500.000000 2500.000000
-16500.000000 2500.000000 2500.000000
-16400.000000 2500.000000 2500.000000
-16300.000000 2500.000000 2500.000000
-16200.000000 2500.000000 2500.000000
-16100.000000 2500.000000 2500.000000
-16000.000000 2500.000000 2500.000000
-15900.000000 2500.000000 2500.000000
-15800.000000 2500.000000 2500.000000
-15700.000000 2500.000000 2500.000000
-15600.000000 2500.000000 2500.000000
-15500.000000 2500.000000 2500.000000
-15400.000000 2500.000000 2500.000000
-15300.000000 2500.000000 2500.000000
-15200.000000 2500.000000 2500.000000
-15100.000000 2500.000000 2500.000000
-15000.000000 2500.000000 2500.000000
-14900.000000 2500.000000 2500.000000
-14800.000000 2500.000000 2500.000000
-14700.000000 2500.000000 2500.000000
-14600.000000 2500.000000 2500.000000
-14500.000000 2500.000000 2500.000000
-14400.000000 2500.000000 2500.000000
-14300.000000 2500.000000 2500.000000
-14200.000000 2500.000000 2500.000000
-14100.000000 2500.000000 2500.000000
-14000.000000 2500.000000 2500.000000
-13900.000000 2500.000000 2500.000000
-13800.000000 2500.000000 2500.000000
-13700.000000 2500.000000 2500.000000
-13600.000000 2500.000000 2500.000000
-13500.000000 2500.000000 2500.000000
-13400.000000 2500.000000 2500.000000
-13300.000000 2500.000000 2500.000000
-13200.000000 2500.000000 2500.000000
-13100.000000 2500.000000 2500.000000
-13000.000000 2500.000000 2500.000000
-12900.000000 2500.000000 2500.000000
-12800.000000 2500.000000 2500.000000
-12700.000000 2500.000000 2500.000000
-12600.000000 2500.000000 2500.000000
-12500.000000 2500.000000 2500.000000
-12400.000000 2500.000000 2500.000000
-12300.000000 2500.000000 2500.000000
-12200.000000 2500.000000 2500.000000
-12100.000000 2500.000000 2500.000000
-12000.000000 2500.000000 2500.000000
-11900.000000 2500.000000 2500.000000
-11800.000000 2500.000000 2500.000000
-11700.000000 2500.000000 2500.000000
-11600.000000 2500.000000 2500.000000
-11500.000000 2500.000000 2500.000000
-11400.000000 2500.000000 2500.000000
-11300.000000 2500.000000 2500.000000
-11200.000000 2500.000000 2500.000000
-11100.000000 2500.000000 2500.000000
-11000.000000 2500.000000 2500.000000
-10900.000000 2500.000000 2500.000000
-10800.000000 2500.000000 2500.000000
-10700.000000 2500.000000 2500.000000
-10600.000000 2500.000000 2500.000000
-10500.000000 2500.000000 2500.000000
-10400.000000 2500.000000 2500.000000
-10300.000000 2500.000000 2500.000000
-10200.000000 2500.000000 2500.000000
-10100.000000 2500.000000 2500.000000
-10000.000000 2500.000000 2500.000000
-9900.000000 2500.000000 2500.000000
-9800.000000 2500.000000 2500.000000
-9700.000000 2500.000000 2500.000000
-9600.000000 2500.000000 2500.000000
-9500.000000 2500.000000 2500.000000
-9400.000000 2500.000000 2500.000000
-9300.000000 2500.000000 2500.000000
-9200.000000 2500.000000 2500.000000
-9100.000000 2500.000000 2500.000000
-9000.000000 2500.000000 2500.000000
-8900.000000 2500.000000 2500.000000
-8800.000000 2500.000000 2500.000000
-8700.000000 2500.000000 2500.000000
-8600.000000 2500.000000 2500.000000
-8500.000000 2500.000000 2500.000000
-8400.000000 2500.000000 2500.000000
-8300.000000 2500.000000 2500.000000
-8200.000000 2500.000000 2500.000000
-8100.000000 2500.000000 2500.000000
-8000.000000 2500.000000 2500.000000
-7900.000000 2500.000000 2500.000000
-7800.000000 2500.000000 2500.000000
-7700.000000 2500.000000 2500.000000
-7600.000000 2500.000000 2500.000000
-7500.000000 2500.000000 2500.000000
-7400.000000 2500.000000 2500.000000
-7300.000000 2500.000000 2500.000000
-7200.000000 2500.000000 2500.000000
-7100.000000 2500.000000 2500.000000
-7000.000000 2500.000000 2500.000000
-6900.000000 2500.000000 2500.000000
-6800.000000 2500.000000 2500.000000
-6700.000000 2500.000000 2500.000000
-6600.000000 2500.000000 2500.000000
-6500.000000 2500.000000 2500.000000
-6400.000000 2500.000000 2500.000000
-6300.000000 2500.000000 2500.000000
-6200.000000 2500.000000 2500.000000
-6100.000000 2500.000000 2500.000000
-6000.000000 2500.000000 2500.000000
-5900.000000 2500.000000 2500.000000
-5800.000000 2500.000000 2500.000000
-5700.000000 2500.000000 2500.000000
-5600.000000 2500.000000 2500.000000
-5500.000000 2500.000000 2500.000000
-5400.000000 2500.000000 2500.000000
-5300.000000 2500.000000 2500.000000
-5200.000000 2500.000000 2500.000000
-5100.000000 2500.000000 2500.000000
-5000.000000 2500.000000 2500.000000
-4900.000000 2500.000000 2500.000000
-4800.000000 2500.000000 2500.000000
-4700.000000 2500.000000 2500.000000
-4600.000000 2500.000000 2500.000000
-4500.000000 2500.000000 2500.000000
-4400.000000 2500.000000 2500.000000
-4300.000000 2500.000000 2500.000000
-4200.000000 2500.000000 2500.000000
-4100.000000 2500.000000 2500.000000
-4000.000000 2500.000000 2500.000000
-3900.000000 2500.000000 2500.000000
-3800.000000 2500.000000 2500.000000
-3700.000000 2500.000000 2500.000000
-3600.000000 2500.000000 2500.000000
-3500.000000 2500.000000 2500.000000
-3400.000000 2500.000000 2500.000000
-3300.000000 2500.000000 2500.000000
-3200.000000 2500.000000 2500.000000
-3100.000000 2500.000000 2500.000000
-3000.000000 2500.000000 2500.000000
-2900.000000 2500.000000 2500.000000
-2800.000000 2500.000000 2500.000000
-2700.000000 2500.000000 2500.000000
-2600.000000 2500.000000 2500.000000
-2500.000000 2500.000000 2500.000000
-2400.000000 2500.000000 2500.000000
-2300.000000 2500.000000 2500.000000
-2200.000000 2500.000000 2500.000000
-2100.000000 2500.000000 2500.000000
-2000.000000 2500.000000 2500.000000
-1900.000000 2500.000000 2500.000000
-1800.000000 2500.000000 2500.000000
-1700.000000 2500.000000 2500.000000
-1600.000000 2500.000000 2500.000000
-1500.000000 2500.000000 2500.000000
-1400.000000 2500.000000 2500.000000
-1300.000000 2500.000000 2500.000000
-1200.000000 2500.000000 2500.000000
-1100.000000 2500.000000 2500.000000
-1000.000000 2500.000000 2500.000000
-900.000000 2500.000000 2500.000000
-800.000000 2500.000000 2500.000000
-700.000000 2500.000000 2500.000000
-600.000000 2500.000000 2500.000000
-500.000000 2500.000000 2500.000000
-400.000000 2500.000000 2500.000000
-300.000000 2500.000000 2500.000000
-200.000000 2500.000000 2500.000000
-100.000000 2500.000000 2500.000000
0.000000 2500.000000 2500.000000
        </DataArray>
      </Points>
      <Lines>
        <DataArray type="Int64" Name="connectivity" format="ascii">
0 1
1 0
1 2
2 1
2 3
3 2
3 4
4 3
4 5
5 4
5 6
6 5
6 7
7 6
7 8
8 7
8 9
9 8
9 10
10 9
10 11
11 10
11 12
12 11
12 13
13 12
13 14
14 13
14 15
15 14
15 16
16 15
16 17
17 16
17 18
18 17
18 19
19 18
19 20
20 19
20 21
21 20
21 22
22 21
22 23
23 22
23 24
24 23
24 25
25 24
25 26
26 25
26 27
27 26
27 28
28 27
28 29
29 28
29 30
30 29
30 31
31 30
31 32
32 31
32 33
33 32
33 34
34 33
34 35
35 34
35 36
36 35
36 37
37 36
37 38
38 37
38 39
39 38
39 40
40 39
40 41
41 40
41 42
42 41
42 43
43 42
43 44
44 43
44 45
45 44
45 46
46 45
46 47
47 46
47 48
48 47
48 49
49 48
49 50
50 49
50 51
51 50
51 52
52 51
52 53
53 52
53 54
54 53
54 55
55 54
55 56
56 55
56 57
57 56
57 58
58 57
58 59
59 58
59 60
60 59
60 61
61 60
61 62
62 61
62 63
63 62
63 64
64 63
64 65
65 64
65 66
66 65
66 67
67 66
67 68
68 67
68 69
69 68
69 70
70 69
70 71
71 70
71 72
72 71
72 73
73 72
73 74
74 73
74 75
75 74
75 76
76 75
76 77
77 76
77 78
78 77
78 79
79 78
79 80
80 79
80 81
81 80
81 82
82 81
82 83
83 82
83 84
84 83
84 85
85 84
85 86
86 85
86 87
87 86
87 88
88 87
88 89
89 88
89 90
90 89
90 91
91 90
91 92
92 91
92 93
93 92
93 94
94 93
94 95
95 94
95 96
96 95
96 97
97 96
97 98
98 97
98 99
99 98
99 100
100 99
100 101
101 100
101 102
102 101
102 103
103 102
103 104
104 103
104 105
105 104
105 106
106 105
106 107
107 106
107 108
108 107
108 109
109 108
109 110
110 109
110 111
111 110
111 112
112 111
112 113
113 112
113 114
114 113
114 115
115 114
115 116
116 115
116 117
117 116
117 118
118 117
118 119
119 118
119 120
120 119
120 121
121 120
121 122
122 121
122 123
123 122
123 124
124 123
124 125
125 124
125 126
126 125
126 127
127 126
127 128
128 127
128 129
129 128
129 130
130 129
130 131
131 130
131 132
132 131
132 133
133 132
133 134
134 133
134 135
135 134
135 136
136 135
136 137
137 136
137 138
138 137
138 139
139 138
139 140
140 139
140 141
141 140
141 142
142 141
142 143
143 142
143 144
144 143
144 145
145 144
145 146
146 145
146 147
147 146
147 148
148 147
148 149
149 148
149 150
150 149
150 151
151 150
151 152
152 151
152 153
153 152
153 154
154 153
154 155
155 154
155 156
156 155
156 157
157 156
157 158
158 157
158 159
159 158
159 160
160 159
160 161
161 160
161 162
162 161
162 163
163 162
163 164
164 163
164 165
165 164
165 166
166 165
166 167
167 166
167 168
168 167
168 169
169 168
169 170
170 169
170 171
171 170
171 172
172 171
172 173
173 172
173 174
174 173
174 175
175 174
175 176
176 175
176 177
177 176
177 178
178 177
178 179
179 178
179 180
180 179
180 181
181 180
181 182
182 181
182 183
183 182
183 184
184 183
184 185
185 184
185 186
186 185
186 187
187 186
187 188
188 187
188 189
189 188
189 190
190 189
190 191
191 190
191 192
192 191
192 193
193 192
193 194
194 193
194 195
195 194
195 196
196 195
196 197
197 196
197 198
198 197
198 199
199 198
199 200
200 199
        </DataArray>
        <DataArray type="Int64" Name="offsets" format="ascii">
     2 
     4 
     6 
     8 
     10 
     12 
     14 
     16 
     18 
     20 
     22 
     24 
     26 
     28 
     30 
     32 
     34 
     36 
     38 
     40 
     42 
     44 
     46 
     48 
     50 
     52 
     54 
     56 
     58 
     60 
     62 
     64 
     66 
     68 
     70 
     72 
     74 
     76 
     78 
     80 
     82 
     84 
     86 
     88 
     90 
     92 
     94 
     96 
     98 
     100 
     102 
     104 
     106 
     108 
     110 
     112 
     114 
     116 
     118 
     120 
     122 
     124 
     126 
     128 
     130 
     132 
     134 
     136 
     138 
     140 
     142 
     144 
     146 
     148 
     150 
     152 
     154 
     156 
     158 
     160 
     162 
     164 
     166 
     168 
     170 
     172 
     174 
     176 
     178 
     180 
     182 
     184 
     186 
     188 
     190 
     192 
     194 
     196 
     198 
     200 
     202 
     204 
     206 
     208 
     210 
     212 
     214 
     216 
     218 
     220 
     222 
     224 
     226 
     228 
     230 
     232 
     234 
     236 
     238 
     240 
     242 
     244 
     246 
     248 
     250 
     252 
     254 
     256 
     258 
     260 
     262 
     264 
     266 
     268 
     270 
     272 
     274 
     276 
     278 
     280 
     282 
     284 
     286 
     288 
     290 
     292 
     294 
     296 
     298 
     300 
     302 
     304 
     306 
     308 
     310 
     312 
     314 
     316 
     318 
     320 
     322 
     324 
     326 
     328 
     330 
     332 
     334 
     336 
     338 
     340 
     342 
     344 
     346 
     348 
     350 
     352 
     354 
     356 
     358 
     360 
     362 
     364 
     366 
     368 
     370 
     372 
     374 
     376 
     378 
     380 
     382 
     384 
     386 
     388 
     390 
     392 
     394 
     396 
     398 
     400 
     402 
     404 
     406 
     408 
     410 
     412 
     414 
     416 
     418 
     420 
     422 
     424 
     426 
     428 
     430 
     432 
     434 
     436 
     438 
     440 
     442 
     444 
     446 
     448 
     450 
     452 
     454 
     456 
     458 
     460 
     462 
     464 
     466 
     468 
     470 
     472 
     474 
     476 
     478 
     480 
     482 
     484 
     486 
     488 
     490 
     492 
     494 
     496 
     498 
     500 
     502 
     504 
     506 
     508 
     510 
     512 
     514 
     516 
     518 
     520 
     522 
     524 
     526 
     528 
     530 
     532 
     534 
     536 
     538 
     540 
     542 
     544 
     546 
     548 
     550 
     552 
     554 
     556 
     558 
     560 
     562 
     564 
     566 
     568 
     570 
     572 
     574 
     576 
     578 
     580 
     582 
     584 
     586 
     588 
     590 
     592 
     594 
     596 
     598 
     600 
     602 
     604 
     606 
     608 
     610 
     612 
     614 
     616 
     618 
     620 
     622 
     624 
     626 
     628 
     630 
     632 
     634 
     636 
     638 
     640 
     642 
     644 
     646 
     648 
     650 
     652 
     654 
     656 
     658 
     660 
     662 
     664 
     666 
     668 
     670 
     672 
     674 
     676 
     678 
     680 
     682 
     684 
     686 
     688 
     690 
     692 
     694 
     696 
     698 
     700 
     702 
     704 
     706 
     708 
     710 
     712 
     714 
     716 
     718 
     720 
     722 
     724 
     726 
     728 
     730 
     732 
     734 
     736 
     738 
     740 
     742 
     744 
     746 
     748 
     750 
     752 
     754 
     756 
     758 
     760 
     762 
     764 
     766 
     768 
     770 
     772 
     774 
     776 
     778 
     780 
     782 
     784 
     786 
     788 
     790 
     792 
     794 
     796 
     798 
     800 
        </DataArray>
      </Lines>
    </Piece>
  </PolyData>
</VTKFile>
