<?xml version="1.0"?>
<VTKFile type="UnstructuredGrid"  version="0.1"  >
<UnstructuredGrid>
<Piece  NumberOfPoints="884" NumberOfCells="3780">
<Points>
<DataArray  type="Float64"  NumberOfComponents="3"  format="ascii">6.362899780273438 2.067399978637695 5  7.685200214385986 0 5  7.309000015258789 2.374799966812134 5  6.690400123596191 0 5  8.68280029296875 0 5  8.257800102233887 2.683099985122681 5  9.682499885559082 0 5  9.208600044250488 2.992000102996826 5  5.412600040435791 3.932499885559082 5  6.217400074005127 4.517199993133545 5  7.024499893188477 5.103600025177002 5  7.833300113677979 5.691199779510498 5  3.932499885559082 5.412600040435791 5  4.517199993133545 6.217400074005127 5  5.103600025177002 7.024499893188477 5  5.691199779510498 7.833300113677979 5  2.067399978637695 6.362899780273438 5  2.374799966812134 7.309000015258789 5  2.683099985122681 8.257800102233887 5  2.992000102996826 9.208600044250488 5  0 6.690400123596191 5  0 7.685200214385986 5  0 8.68280029296875 5  0 9.682499885559082 5  -2.374799966812134 7.309000015258789 5  -2.067399978637695 6.362899780273438 5  -2.683099985122681 8.257800102233887 5  -2.992000102996826 9.208600044250488 5  -4.517199993133545 6.217400074005127 5  -3.932499885559082 5.412600040435791 5  -5.103600025177002 7.024499893188477 5  -5.691199779510498 7.833300113677979 5  -5.412600040435791 3.932499885559082 5  -6.217400074005127 4.517199993133545 5  -7.024499893188477 5.103600025177002 5  -7.833300113677979 5.691199779510498 5  -6.362899780273438 2.067399978637695 5  -7.309000015258789 2.374799966812134 5  -8.257800102233887 2.683099985122681 5  -9.208600044250488 2.992000102996826 5  -7.685200214385986 0 5  -6.690400123596191 0 5  -8.68280029296875 0 5  -9.682499885559082 0 5  -6.362899780273438 -2.067399978637695 5  -7.309000015258789 -2.374799966812134 5  -8.257800102233887 -2.683099985122681 5  -9.208600044250488 -2.992000102996826 5  -6.217400074005127 -4.517199993133545 5  -5.412600040435791 -3.932499885559082 5  -7.024499893188477 -5.103600025177002 5  -7.833300113677979 -5.691199779510498 5  -4.517199993133545 -6.217400074005127 5  -3.932499885559082 -5.412600040435791 5  -5.103600025177002 -7.024499893188477 5  -5.691199779510498 -7.833300113677979 5  -2.374799966812134 -7.309000015258789 5  -2.067399978637695 -6.362899780273438 5  -2.683099985122681 -8.257800102233887 5  -2.992000102996826 -9.208600044250488 5  0 -7.685200214385986 5  0 -6.690400123596191 5  0 -8.68280029296875 5  0 -9.682499885559082 5  2.374799966812134 -7.309000015258789 5  2.067399978637695 -6.362899780273438 5  2.683099985122681 -8.257800102233887 5  2.992000102996826 -9.208600044250488 5  4.517199993133545 -6.217400074005127 5  3.932499885559082 -5.412600040435791 5  5.103600025177002 -7.024499893188477 5  5.691199779510498 -7.833300113677979 5  6.217400074005127 -4.517199993133545 5  5.412600040435791 -3.932499885559082 5  7.024499893188477 -5.103600025177002 5  7.833300113677979 -5.691199779510498 5  7.309000015258789 -2.374799966812134 5  6.362899780273438 -2.067399978637695 5  8.257800102233887 -2.683099985122681 5  9.208600044250488 -2.992000102996826 5  0 0 -17  1.183899998664856 0 -16.75510025024414  1.125900030136108 0.3657999932765961 -16.75510025024414  0.9577999711036682 0.6958999633789062 -16.75510025024414  0.6958999633789062 0.9577999711036682 -16.75510025024414  0.3657999932765961 1.125900030136108 -16.75510025024414  0 1.183899998664856 -16.75510025024414  -0.3657999932765961 1.125900030136108 -16.75510025024414  -0.6958999633789062 0.9577999711036682 -16.75510025024414  -0.9577999711036682 0.6958999633789062 -16.75510025024414  -1.125900030136108 0.3657999932765961 -16.75510025024414  -1.183899998664856 0 -16.75510025024414  -1.125900030136108 -0.3657999932765961 -16.75510025024414  -0.9577999711036682 -0.6958999633789062 -16.75510025024414  -0.6958999633789062 -0.9577999711036682 -16.75510025024414  -0.3657999932765961 -1.125900030136108 -16.75510025024414  0 -1.183899998664856 -16.75510025024414  0.3657999932765961 -1.125900030136108 -16.75510025024414  0.6958999633789062 -0.9577999711036682 -16.75510025024414  0.9577999711036682 -0.6958999633789062 -16.75510025024414  1.125900030136108 -0.3657999932765961 -16.75510025024414  2.333600044250488 0 -16.02750015258789  2.219399929046631 0.7210999727249146 -16.02750015258789  1.887899994850159 1.371700048446655 -16.02750015258789  1.371700048446655 1.887899994850159 -16.02750015258789  0.7210999727249146 2.219399929046631 -16.02750015258789  0 2.333600044250488 -16.02750015258789  -0.7210999727249146 2.219399929046631 -16.02750015258789  -1.371700048446655 1.887899994850159 -16.02750015258789  -1.887899994850159 1.371700048446655 -16.02750015258789  -2.219399929046631 0.7210999727249146 -16.02750015258789  -2.333600044250488 0 -16.02750015258789  -2.219399929046631 -0.7210999727249146 -16.02750015258789  -1.887899994850159 -1.371700048446655 -16.02750015258789  -1.371700048446655 -1.887899994850159 -16.02750015258789  -0.7210999727249146 -2.219399929046631 -16.02750015258789  0 -2.333600044250488 -16.02750015258789  0.7210999727249146 -2.219399929046631 -16.02750015258789  1.371700048446655 -1.887899994850159 -16.02750015258789  1.887899994850159 -1.371700048446655 -16.02750015258789  2.219399929046631 -0.7210999727249146 -16.02750015258789  3.416100025177002 0 -14.83819961547852  3.248899936676025 1.055600047111511 -14.83819961547852  2.763700008392334 2.00789999961853 -14.83819961547852  2.00789999961853 2.763700008392334 -14.83819961547852  1.055600047111511 3.248899936676025 -14.83819961547852  0 3.416100025177002 -14.83819961547852  -1.055600047111511 3.248899936676025 -14.83819961547852  -2.00789999961853 2.763700008392334 -14.83819961547852  -2.763700008392334 2.00789999961853 -14.83819961547852  -3.248899936676025 1.055600047111511 -14.83819961547852  -3.416100025177002 0 -14.83819961547852  -3.248899936676025 -1.055600047111511 -14.83819961547852  -2.763700008392334 -2.00789999961853 -14.83819961547852  -2.00789999961853 -2.763700008392334 -14.83819961547852  -1.055600047111511 -3.248899936676025 -14.83819961547852  0 -3.416100025177002 -14.83819961547852  1.055600047111511 -3.248899936676025 -14.83819961547852  2.00789999961853 -2.763700008392334 -14.83819961547852  2.763700008392334 -2.00789999961853 -14.83819961547852  3.248899936676025 -1.055600047111511 -14.83819961547852  4.400199890136719 0 -13.22130012512207  4.184899806976318 1.359699964523315 -13.22130012512207  3.559900045394897 2.586400032043457 -13.22130012512207  2.586400032043457 3.559900045394897 -13.22130012512207  1.359699964523315 4.184899806976318 -13.22130012512207  0 4.400199890136719 -13.22130012512207  -1.359699964523315 4.184899806976318 -13.22130012512207  -2.586400032043457 3.559900045394897 -13.22130012512207  -3.559900045394897 2.586400032043457 -13.22130012512207  -4.184899806976318 1.359699964523315 -13.22130012512207  -4.400199890136719 0 -13.22130012512207  -4.184899806976318 -1.359699964523315 -13.22130012512207  -3.559900045394897 -2.586400032043457 -13.22130012512207  -2.586400032043457 -3.559900045394897 -13.22130012512207  -1.359699964523315 -4.184899806976318 -13.22130012512207  0 -4.400199890136719 -13.22130012512207  1.359699964523315 -4.184899806976318 -13.22130012512207  2.586400032043457 -3.559900045394897 -13.22130012512207  3.559900045394897 -2.586400032043457 -13.22130012512207  4.184899806976318 -1.359699964523315 -13.22130012512207  5.257599830627441 0 -11.22360038757324  5.000199794769287 1.624699950218201 -11.22360038757324  4.253399848937988 3.0903000831604 -11.22360038757324  3.0903000831604 4.253399848937988 -11.22360038757324  1.624699950218201 5.000199794769287 -11.22360038757324  0 5.257599830627441 -11.22360038757324  -1.624699950218201 5.000199794769287 -11.22360038757324  -3.0903000831604 4.253399848937988 -11.22360038757324  -4.253399848937988 3.0903000831604 -11.22360038757324  -5.000199794769287 1.624699950218201 -11.22360038757324  -5.257599830627441 0 -11.22360038757324  -5.000199794769287 -1.624699950218201 -11.22360038757324  -4.253399848937988 -3.0903000831604 -11.22360038757324  -3.0903000831604 -4.253399848937988 -11.22360038757324  -1.624699950218201 -5.000199794769287 -11.22360038757324  0 -5.257599830627441 -11.22360038757324  1.624699950218201 -5.000199794769287 -11.22360038757324  3.0903000831604 -4.253399848937988 -11.22360038757324  4.253399848937988 -3.0903000831604 -11.22360038757324  5.000199794769287 -1.624699950218201 -11.22360038757324  5.963399887084961 0 -8.902500152587891  5.671500205993652 1.84280002117157 -8.902500152587891  4.82450008392334 3.505199909210205 -8.902500152587891  3.505199909210205 4.82450008392334 -8.902500152587891  1.84280002117157 5.671500205993652 -8.902500152587891  0 5.963399887084961 -8.902500152587891  -1.84280002117157 5.671500205993652 -8.902500152587891  -3.505199909210205 4.82450008392334 -8.902500152587891  -4.82450008392334 3.505199909210205 -8.902500152587891  -5.671500205993652 1.84280002117157 -8.902500152587891  -5.963399887084961 0 -8.902500152587891  -5.671500205993652 -1.84280002117157 -8.902500152587891  -4.82450008392334 -3.505199909210205 -8.902500152587891  -3.505199909210205 -4.82450008392334 -8.902500152587891  -1.84280002117157 -5.671500205993652 -8.902500152587891  0 -5.963399887084961 -8.902500152587891  1.84280002117157 -5.671500205993652 -8.902500152587891  3.505199909210205 -4.82450008392334 -8.902500152587891  4.82450008392334 -3.505199909210205 -8.902500152587891  5.671500205993652 -1.84280002117157 -8.902500152587891  6.497499942779541 0 -6.324999809265137  6.179500102996826 2.007800102233887 -6.324999809265137  5.256599903106689 3.819099903106689 -6.324999809265137  3.819099903106689 5.256599903106689 -6.324999809265137  2.007800102233887 6.179500102996826 -6.324999809265137  0 6.497499942779541 -6.324999809265137  -2.007800102233887 6.179500102996826 -6.324999809265137  -3.819099903106689 5.256599903106689 -6.324
[...]
<CellData  Vectors="f0"> 
<DataArray  type="Float64"  Name="f0"  NumberOfComponents="3" format="ascii">7.5484506353724701e-01 1.7763041509647726e-01 6.3137304785083115e-01   7.2019703757706111e-01 3.0912687943386147e-01 6.2105701638809352e-01   5.2311531267136291e-01 4.8660825729121704e-01 6.9965541058038283e-01   5.4430251717151545e-01 -5.2268132222937602e-01 6.5614146698040887e-01   6.9313150837743398e-01 -5.5975527068926867e-01 4.5409321021789728e-01   6.7341143767074618e-01 -5.9627596669964178e-01 4.3694113798020850e-01   6.0338414718643785e-01 -6.5044254927631204e-02 7.9479544899696919e-01   9.4133567882608027e-01 -1.4707237998432746e-01 3.0372522672422420e-01   9.1873830213008367e-01 -2.6502366026482604e-01 2.9268573763371175e-01   3.4840318575115659e-01 6.2515850142874030e-01 6.9838544047917661e-01   5.9038041431212462e-01 5.1862388297351703e-01 6.1840959756565062e-01   6.6493369476453856e-01 4.0347064243602659e-01 6.2852889367669862e-01   6.7916512207348956e-01 -3.2886764719135286e-01 6.5617715653005237e-01   8.3264264313649106e-01 -3.1720961984431689e-01 4.5392068548433134e-01   8.2492327614210614e-01 -3.5812997155414961e-01 4.3725191631768245e-01   5.9407877411388599e-01 1.2454746478663592e-01 7.9470832956735737e-01   9.4077541484387572e-01 1.5017041551542593e-01 3.0394691648217909e-01   9.5530217478411195e-01 3.1642607543629117e-02 2.9391181882784062e-01   1.3894839494994099e-01 7.0395390491802867e-01 6.9648743871300467e-01   4.0068003397146279e-01 6.7926083832022022e-01 6.1482745674269212e-01   5.0998346764211933e-01 5.9142901647422630e-01 6.2458510819107094e-01   7.4714420717394048e-01 -1.0263245543006773e-01 6.5668617538829688e-01   8.8983328903477554e-01 -4.1530795224622150e-02 4.5435334460776167e-01   8.9472714072718951e-01 -8.4053586104083061e-02 4.3857538708689159e-01   5.2675826887795507e-01 3.0176063772377915e-01 7.9465038451536674e-01   8.4891287719036601e-01 4.3192256536912588e-01 3.0460978445093556e-01   8.9779634238733763e-01 3.2524957584690090e-01 2.9693293417657562e-01   -8.5030200468506290e-02 7.1526599086859333e-01 6.9363564963092539e-01   1.6852563302156787e-01 7.7456581816096026e-01 6.0960078881906221e-01   3.0525754305321778e-01 7.2385231588875931e-01 6.1874343226173423e-01   7.4120319322846129e-01 1.3410560738361119e-01 6.5775010789467636e-01   8.5683541767163085e-01 2.4183755042432217e-01 4.5532808139254632e-01   8.7530185366060131e-01 1.9854647464823852e-01 4.4090059748772120e-01   4.0841093048083188e-01 4.4911194142208677e-01 7.9467097962430178e-01   6.7623953786085533e-01 6.6994395172942478e-01 3.0639119315689001e-01   7.5097132033291059e-01 5.8646411082086325e-01 3.0348611964278466e-01   -3.0183173799162355e-01 6.5838993572543847e-01 6.8949215582293966e-01   -8.4086278207895271e-02 7.9418057737491110e-01 6.0181910480107881e-01   7.1998161720454035e-02 7.8936073498137149e-01 6.0968628374574874e-01   6.6057757411553641e-01 3.5895784785917717e-01 6.5939317720914725e-01   7.3109354435471652e-01 5.0725317166145090e-01 4.5628175965292872e-01   7.6829792589417356e-01 4.6165179973164139e-01 4.4337712690221653e-01   2.5162657238059832e-01 5.5214992194678891e-01 7.9486949978429133e-01   4.4344869548095317e-01 8.4069988547447316e-01 3.1077559740809391e-01   5.2777611504748878e-01 7.8799440687104116e-01 3.1706527797990808e-01   -1.5847140215028688e-01 7.7654146098472199e-01 6.0980459483460048e-01   -2.6086265006070547e-01 7.4776811250147568e-01 6.1056414975167717e-01   -4.5888834126891848e-01 5.4054278147890655e-01 7.0514500062263208e-01   5.3534135146142758e-01 5.4982340015505282e-01 6.4119023799255159e-01   5.9525237043241397e-01 6.7963600320409201e-01 4.2870688686577635e-01   6.1698700649969251e-01 6.7764938099451300e-01 4.0015108528647092e-01   6.2638248194727741e-02 6.0324585322965252e-01 7.9509362992386423e-01   1.4146277850677347e-01 9.3953228816222067e-01 3.1189785729758457e-01   2.8850839171593806e-01 9.1009423385206134e-01 2.9751124766868248e-01   -6.0863572254711606e-01 3.6680397469842790e-01 7.0357909271767549e-01   -4.8580333847419371e-01 6.2082929096788464e-01 6.1528282873501494e-01   -3.8452191553720938e-01 6.8484550970799052e-01 6.1897741451320498e-01   3.3483350967496439e-01 6.8580980302847017e-01 6.4619844241093261e-01   3.4186210137801021e-01 8.3140714056115650e-01 4.3807807768166313e-01   3.7652372563898340e-01 8.2875987418340324e-01 4.1400743714679605e-01   -1.2488655424506773e-01 5.9398388622492659e-01 7.9472604172451278e-01   -1.4995896484998361e-01 9.3992753572507848e-01 3.0669237903084201e-01   -1.7113184709346585e-02 9.5664977969862330e-01 2.9077452308722679e-01   -6.9400308034325642e-01 1.5569302103333132e-01 7.0294646043967912e-01   -6.5613979174568160e-01 4.3230391836547433e-01 6.1855397968442649e-01   -5.7366609256020595e-01 5.2960563720523668e-01 6.2484279098639628e-01   1.0538509610823388e-01 7.5322679370475587e-01 6.4928251567961903e-01   6.1930477179517496e-02 8.9425542573589445e-01 4.4328706928546596e-01   1.0140812060769128e-01 9.0117349911209155e-01 4.2145561327226133e-01   -3.0159363993992738e-01 5.2687407272290709e-01 7.9463701006267318e-01   -4.3130367863425839e-01 8.4925177528410201e-01 3.0457339885929924e-01   -3.1684145389522367e-01 9.0348627071689769e-01 2.8870227181444169e-01   -7.0784058535169159e-01 -7.0023707620517003e-02 7.0291964978781318e-01   -7.5707491328051923e-01 2.0289794787790139e-01 6.2105453686136625e-01   -7.0683584031910551e-01 3.2427099794917724e-01 6.2868380184383810e-01   -1.3231019657313420e-01 7.4739033751188400e-01 6.5110512637072937e-01   -2.1954210794562612e-01 8.6760870125635325e-01 4.4622273685346064e-01   -1.8224733912208374e-01 8.8646728004051867e-01 4.2545438608393632e-01   -4.4935182753150849e-01 4.0815400145599512e-01 7.9466737451007641e-01   -6.7225643699118220e-01 6.7514192970642395e-01 3.0377354131221440e-01   -5.8254455696451646e-01 7.5998403341111964e-01 2.8827593612700259e-01   -6.5025617418797843e-01 -2.8732174515525394e-01 7.0334398053821157e-01   -7.8086552057221559e-01 -4.3906593243475817e-02 6.2321944550097663e-01   -7.7030006107494242e-01 8.8893150837413115e-02 6.3147699041429006e-01   -3.5627898533710212e-01 6.6923457264009434e-01 6.5210679970785401e-01   -4.7716721652204580e-01 7.5619338337458186e-01 4.4786697991969932e-01   -4.4706796384735997e-01 7.8582779127339142e-01 4.2743807921677657e-01   -5.5334413642643532e-01 2.4940383598117927e-01 7.9473956941978008e-01   -8.4798732479588523e-01 4.3457587402387898e-01 3.0347119362850145e-01   -7.8956417320798034e-01 5.4182486400622709e-01 2.8821537565145749e-01   -5.2809762187764886e-01 -4.7488338127571245e-01 7.0405602169477588e-01   -7.2704916087874361e-01 -2.8346542202516439e-01 6.2541575895527501e-01   -7.5813749270139907e-01 -1.5356366397787469e-01 6.3379864848050438e-01   -5.4526757134937487e-01 5.2621499605978528e-01 6.5257865617478050e-01   -6.8706402633628316e-01 5.7155026345837368e-01 4.4876448659335488e-01   -6.6760879126565331e-01 6.0899375377627840e-01 4.2842657042749333e-01   -6.0318990229794744e-01 6.6349871125945106e-02 7.9483496795786046e-01   -9.4086482627896229e-01 1.5113171050813407e-01 3.0328493073361756e-01   -9.1855643054668634e-01 2.7085710782158895e-01 2.8804459672881078e-01   -3.5408858561908130e-01 -6.1423613548355382e-01 7.0528092145562304e-01   -6.0239347142187061e-01 -4.9268307507287123e-01 6.2807093374610701e-01   -6.7196456752052880e-01 -3.7928581694809976e-01 6.3612126227134702e-01   -6.8120081480232852e-01 3.3196337870968129e-01 6.5256955431711983e-01   -8.2957405481971191e-01 3.3211681933565218e-01 4.4902673976391305e-01   -8.2307695158252203e-01 3.7348564560350772e-01 4.2799766369970060e-01   -5.9403196817919168e-01 -1.2334925610408742e-01 7.9493016782665149e-01   -9.4155275486169765e-01 -1.4770139156935563e-01 3.0281949378164497e-01   -9.5749843937761736e-01 -2.6426645988719938e-02 2.8736911685639416e-01   -1.4592599918002447e-01 -6.9189813978575865e-01 7.0713512662544686e-01   -4.2080471384844248e-01 -6.5108188369075359e-01 6.3172353331441600e-01   -5.2074750358727062e-01 -5.6635524501572476e-01 6.3883348461234857e-01   -7.5081183020681563e-01 1.0529349399710408e-01 6.5211130660846794e-01   -8.9152108656622187e-01 6.1925598480153714e-02 4.4879821370359163e-01   -8.9888657604913713e-01 1.0198423924222509e-01 4.2625275919794348e-01   -5.2659839840454348e-01 -3.0110829362235891e-01 7.9500371837544581e-01   -8.4933752288828002e-01 -4.3334351009183891e-01 3.0143125640821694e-01   -9.0298355077345605e-01 -3.2095264218379088e-01 2.8577153955142137e-01   7.4999374720685685e-02 -7.0020083974464409e-01 7.1000344514055092e-01   -2.0227940801924665e-01 -7.4361758279769019e-01 6.3728150523154281e-01   -3.1959854015288447e-01 -6.9649018521980999e-01 6.4247444713191448e-01   -7.4761457228737671e-01 -1.3156437336627272e-01 6.5099379772544164e-01   -8.6876937945723520e-01 -2.1111673814079768e-01 4.4798604866154618e-01   -8.8844565668336717e-01 -1.7911818630520684e-01 4.2262210285736213e-01   -4.0694537706794431e-01 -4.4985853699215761e-01 7.9500046962218041e-01   -6.7106425473750120e-01 -6.7912020775645854e-01 2.9745640692070369e-01   -7.6116024135478688e-01 -5.8397643099240504e-01 2.8220009678679497e-01   2.8575011573678150e-01 -6.3849294471589002e-01 7.1461688235132792e-01   2.8901288241026502e-02 -7.6262371825588160e-01 6.4619975256620710e-01   -8.8451353456822146e-02 -7.5654138774627622e-01 6.4793380596184935e-01   -6.7320815091164987e-01 -3.5487522569997476e-01 6.4874206267228907e-01   -7.6928432610547892e-01 -4.5704077197376097e-01 4.4646433977838912e-01   -7.9399325183204006e-01 -4.4315036212001857e-01 4.1617804639181100e-01   -2.4502896789647610e-01 -5.5529300138244131e-01 7.9474113862845330e-01   -4.1745563005055186e-01 -8.6242183252336524e-01 2.8629161179626977e-01   -5.4804396015780443e-01 -7.9027316059779507e-01 2.7409562975854307e-01   5.0404682358341169e-01 -5.0965634422024442e-01 6.9729378992179059e-01   3.3432704243253392e-01 -6.9500920482810802e-01 6.3656898096320258e-01   1.7887963430807935e-01 -7.4069572094182812e-01 6.4760879007648464e-01   -5.1397379484160299e-01 -5.3842322874438120e-01 6.6777526397257947e-01   -5.3598086790559341e-01 -6.9684112506800322e-01 4.7658438666745262e-01   -5.8552458383615247e-01 -6.6563431584476540e-01 4.6272235127103811e-01   -6.9750416923006708e-02 -6.0332041045418994e-01 7.9444468126461798e-01   -1.5873979247191405e-01 -9.4542337821134559e-01 2.8456953715426359e-01   -2.4820800148065336e-01 -9.2244980592092529e-01 2.9575607452567965e-01   6.3026678265640390e-01 -3.3647928197922861e-01 6.9969294208338761e-01   5.2383040291801997e-01 -5.7176341242936857e-01 6.3143802721440911e-01   3.9996340825179749e-01 -6.5393207394689079e-01 6.4218605222632041e-01   -3.2646828471128908e-01 -6.7435778232612442e-01 6.6230066520829922e-01   -3.0859710977829274e-01 -8.2961519206982215e-01 4.6530532148046239e-01   -3.5553432926839834e-01 -8.1908080973843944e-01 4.5024038229930730e-01   1.2305620682918217e-01 -5.9408112931858426e-01 7.9493884775468826e-01   1.4903697507433883e-01 -9.4313940017765840e-01 2.9709929329111018e-01   3.9653283102097037e-02 -9.5464410195064531e-01 2.9506661723188615e-01   7.0139324000540981e-01 -1.3067345222087026e-01 7.0068277264180612e-01   6.7267001760986633e-01 -3.9131040414200302e-01 6.2799366478379459e-01   5.8370920868085696e-01 -5.0148572676352532e-01 6.3857609673390614e-01   -1.0284133834563669e-01 -7.4480743584195341e-01 6.5929404091922905e-01   -4.2491291315358615e-02 -8.8703507970075202e-01 4.5972058561298479e-01   -8.6418088781497648e-02 -8.9218405711184823e-01 4.4329888444008858e-01   3.0150878568607264e-01 -5.2633472866685094e-01 7.9502653759134612e-01   4.3479316381292055e-01 -8.4854504495320193e-01 3.0152810353649750e-01   3.2894271956296195e-01 -8.9744138934677475e-01 2.9390247731247621e-01   7.0765040937926726e-01 8.9111887635603779e-02 7.0089524626936528e-01   7.6154409295132908e-01 -1.6969008813458916e-01 6.2547602246697309e-01   7.1170135540777868e-01 -2.9846187987938699e-01 6.3591019262510673e-01   1.3270919237580506e-01 -7.4161406388664408e-01 6.5755532922050175e-01   2.3199447441529847e-01 -8.5883185779772875e-01 4.5667130360628438e-01   1.9355786968348454e-01 -8.7718574111338843e-01 4.3935640865769515e-01   4.4968850035600999e-01 -4.0717106472645276e-01 7.9498111085627465e-01   6.7572888567278455e-01 -6.7196739441337860e-01 3.0305644761830458e-01   5.8875174956397436e-01 -7.5334290357510358e-01 2.9296404288614153e-01   6.4662917838718803e-01 3.0174008095937016e-01 7.0055903480468873e-01   7.7865529566423941e-01 7.1774185511527394e-02 6.2330079427543461e-01   7.7091175329834516e-01 -6.4204808585567680e-02 6.3368102929728354e-01   3.5592767724925650e-01 -6.6498956574980728e-01 6.5657123313437538e-01   4.8588075375968098e-01 -7.4625583322548783e-01 4.5495059365430257e-01   4.5567765526133153e-01 -7.7529441427519075e-01 4.3729314730162566e-01   5.5367406543716180e-01 -2.4819170186045572e-01 7.9488923650476473e-01   8.5008132026252259e-01 -4.3037564033702674e-01 3.0353021940065417e-01   7.9225787260734426e-01 -5.3549722704613811e-01 2.9249190309476031e-01   7.7079277072572694e-01 1.6736791561045949e-01 6.1468544805086356e-01   7.6490186647907454e-01 1.7646371449766834e-01 6.1948156287885869e-01   7.4327994119637852e-01 2.8363091944708502e-01 6.0583317719828012e-01   6.9218814969819364e-01 2.9435540510779390e-01 6.5892217803165265e-01   6.2628660859874974e-01 4.7393526356257704e-01 6.1892864852676133e-01   6.1409782545586744e-01 4.9635199222376131e-01 6.1355338594945585e-01   6.0233269156823721e-01 -5.0966230325250061e-01 6.1430802271934815e-01   5.9934516407112426e-01 -5.2095244727735679e-01 6.0772000279162486e-01   5.7700101687625260e-01 -5.7718982827103726e-01 5.7779882603151622e-01   6.8575592700340204e-01 -5.7256085361862596e-01 4.4925132914821397e-01   6.6946380413942308e-01 -5.9426827736772048e-01 4.4562052802947083e-01   6.6848725085130989e-01 -6.0394407607948319e-01 4.3391684533868802e-01   7.9167713066584988e-01 -2.6496576903331012e-02 6.1035442475365465e-01   7.9247153874690912e-01 -3.0518485636507456e-02 6.0913443010051138e-01   7.8697731932231596e-01 -1.6184413453717228e-01 5.9535770073798200e-01   8.5504532153426138e-01 -1.6837296924013087e-01 4.9042003412003299e-01   8.3334054428026694e-01 -2.7817976182261744e-01 4.7761269872181056e-01   8.3371814712213821e-01 -2.9433190122573827e-01 4.6715311855413816e-01   4.3008773332836925e-01 6.6287923564265916e-01 6.1281225190931710e-01   4.5036588397007038e-01 6.4382659967073341e-01 6.1853434368785487e-01   5.6750967320352630e-01 4.9407540871697897e-01 6.5861686239652817e-01   6.1919555539299231e-01 4.9893683427093649e-01 6.0630898902248676e-01   6.7197539151942276e-01 4.0433388710105261e-01 6.2043736653015824e-01   6.8079260241128148e-01 3.9717653401299957e-01 6.1542796344032102e-01   7.2972023930120178e-01 -2.9791578144037878e-01 6.1538486100936596e-01   7.3042923085698386e-01 -3.1144797258067985e-01 6.0778727295992363e-01   7.2579556044871263e-01 -3.7024768041328465e-01 5.7970735147794716e-01   8.2844494107824107e-01 -3.3366595906924251e-01 4.4973004349207640e-01   8.1887506258695741e-01 -3.5726079512527675e-01 4.4912242204055214e-01   8.2156068528271053e-01 -3.6849497567871492e-01 4.3492050600181209e-01   7.6082225454673724e-01 2.1696252850184389e-01 6.1160864896123146e-01   7.6212129867875955e-01 2.1461972634181328e-01 6.1081738714352540e-01   7.9626011866336910e-01 8.9212249278614250e-02 5.9832579211035253e-01   8.6522257720062001e-01 1.0326676444683933e-01 4.9061018946514823e-01   8.7710977966502979e-01 -6.5323305334144058e-03 4.8021117709988570e-01   8.8367462334861957e-01 -2.3457874079711387e-02 4.6746531640654976e-01   2.0241100143275187e-01 7.6519635759307891e-01 6.1109516899925542e-01   2.3190899550961441e-01 7.5158078184440968e-01 6.1747404549084195e-01   3.8801944022160550e-01 6.4559599645195487e-01 6.5772025730304062e-01   4.3511232075140993e-01 6.6494118860008100e-01 6.0702638192391034e-01   5.1329909987292355e-01 5.9159110974273132e-01 6.2170294110843183e-01   5.2346580508720753e-01 5.8768446953184006e-01 6.1691252963069765e-01   7.8447374207287945e-01 -5.5223164358262841e-02 6.1765272847919916e-01   7.9086186845156103e-01 -7.2981089640012445e-02 6.0756765156257431e-01   8.0216052128155790e-01 -1.2765885083839557e-01 5.8324069898897635e-01   8.9034304469566528e-01 -6.4181812396743809e-02 4.5064469720548506e-01   8.8572403171495173e-01 -8.6011620733015146e-02 4.5607753672818480e-01   8.9383093619674903e-01 -9.8689416856396386e-02 4.3730456291716863e-01   6.5736742106548629e-01 4.3676066390414514e-01 6.1408519778816273e-01   6.5791389952244272e-01 4.3624852851252449e-01 6.1386395572686803e-01   7.2442758494497428e-01 3.3029463660346603e-01 6.0506197617613755e-01   7.9187170751167768e-01 3.6339734089101938e-01 4.9076691153559238e-01   8.3188509039059555e-01 2.6565418218281045e-01 4.8719937756850729e-01   8.4786297265796162e-01 2.4793235514844908e-01 4.6862512257518935e-01   -4.7079492179209204e-02 7.9270177057255453e-01 6.0773787467724172e-01   -7.3069875725188527e-03 7.8831306549137015e-01 6.1517061310208443e-01   1.7237346920236196e-01 7.3519450716355772e-01 6.5553823742518136e-01   2.0945714603978088e-01 7.6551275589424794e-01 6.0832134356990797e-01   3.0564623913879746e-01 7.1975766587453016e-01 6.2329353958022371e-01   3.1266889626743311e-01 7.1939954675321460e-01 6.2021610024689289e-01   7.5816784930361947e-01 1.9598630090003177e-01 6.2187212377210610e-01   7.7633602604985252e-01 1.7043133418369227e-01 6.0679255285737976e-01   7.9835411085335706e-01 1.2521542166210781e-01 5.8898576953186077e-01   8.6702761447906140e-01 2.0757973199708898e-01 4.5286450640178688e-01   8.6274493255009232e-01 1.8989336620033270e-01 4.6854585114410485e-01   8.7877958006334622e-01 1.7719772167295153e-01 4.4301139625919650e-01   4.9579947437919292e-01 6.0854161975823029e-01 6.1956073545184065e-01   4.9332776532059952e-01 6.0972636983296780e-01 6.2036843615739445e-01   5.7532011899023094e-01 5.3303136905763426e-01 6.2038811039355912e-01   6.4549307105658671e-01 5.8466329951910789e-01 4.9140682328216045e-01   6.9832883948419333e-01 5.0784098317405768e-01 5.0438993267956933e-01   7.3121313098700413e-01 4.9079338699287256e-01 4.7372087607672153e-01   -2.9382610212035765e-01 7.4253039841402502e-01 6.0188122769141950e-01   -2.4437750138428493e-01 7.5326797713599847e-01 6.1056255052841535e-01   -5.5709324756158862e-02 7.5747470168364328e-01 6.5044695560126797e-01   -3.5301115518357740e-02 7.9092676658796868e-01 6.1083203128837615e-01   7.3040323183371225e-02 7.7778203428894965e-01 6.2424418898051481e-01   6.4932677773047787e-02 7.7557405003289059e-01 6.2787676292575967e-01   6.4585726683955724e-01 4.3252160805125978e-01 6.2910670166880589e-01   6.8984505751564684e-01 3.9612815560808795e-01 6.0593249590036058e-01   7.1598716566395082e-01 3.6248050999413195e-01 5.9660327614465347e-01   7.6310968272689117e-01 4.5436825658988406e-01 4.5948866999487836e-01   7.5418545249606961e-01 4.3962362129413451e-01 4.8770874185462199e-01   7.7995924944290651e-01 4.2993119043418920e-01 4.5466598403672676e-01   3.0373138971324748e-01 7.1283767415978305e-01 6.3214664478551508e-01   2.9817192375936963e-01 7.1369297423274591e-01 6.3382610369462222e-01   3.6070293281591220e-01 6.6368264952962874e-01 6.5530694535394274e-01   4.5402705896061252e-01 7.4121629355138741e-01 4.9441101543187760e-01   4.8481332664742505e-01 6.8146222524493649e-01 5.4823215638007639e-01   5.4744811329537924e-01 6.7283581099081757e-01 4.9755554639867949e-01   -1.4234764872740835e-01 7.6455861490161425e-01 6.2860787493542736e-01   -1.5082378783674499e-01 7.6634900498857939e-01 6.2443732810020336e-01   -2.7359866219123874e-01 7.4026379321802616e-01 6.1408285022961273e-01   -2.6861253034834409e-01 7.0904823616966994e-01 6.5195904927457793e-01   -4.6089890045299009e-01 6.3762628713276992e-01 6.1720476289186466e-01   -4.4272300709446066e-01 6.4164717944042282e-01 6.2630976360126867e-01   5.6437515224174151e-01 5.8002660575049270e-01 5.8741967344993429e-01   5.2182161677