# vtk DataFile Version 3.0
Tree converted
ASCII
DATASET POLYDATA
POINTS 240 float
0 0 0
91.9452 -379.773 0
0 0 0
-196.766 -537.455 0
44.2597 -308.333 0
110.649 -770.832 0
8.85193 -61.6666 0
407.945 -375.715 0
-176.18 -505.24 0
-290.601 -913.837 0
-35.236 -101.048 0
-522.729 -419.512 0
73.7131 -670.152 0
58.7479 -1192.43 0
196.378 -301.877 0
547.39 -948.668 0
-184.004 -332.638 0
-638.13 -854.804 0
-255.684 -830.767 0
-344.86 -1315.68 0
381.945 -834.953 0
484.79 -1311.17 0
50.6143 -1163.43 0
3.1145 -1569.71 0
388.508 -372.689 0
733.893 -508.262 0
-514.54 -836.976 0
-734.898 -1173.2 0
536.693 -952.195 0
824.793 -1193.73 0
397.562 -1185.55 0
420.988 -1711.45 0
-349.84 -1197.98 0
-548.109 -1697.03 0
34.905 -1475.51 0
67.0673 -1911.27 0
-506.367 -400.861 0
-928.411 -644.721 0
655.54 -1124.94 0
842.826 -1574.41 0
-380.007 -1461.95 0
-302.405 -2018.78 0
-539.258 -840.542 0
-971.193 -1500.01 0
642.762 -521.849 0
969.007 -847.34 0
106.623 -1785.51 0
329.169 -2153.99 0
74.8841 -1907.5 0
-12.5148 -2269.69 0
-504.819 -682.308 0
-1127.01 -1072.31 0
479.728 -1572.7 0
761.537 -2069.48 0
631.77 -1090.39 0
1183.17 -1340.83 0
-373.973 -1409.16 0
-804.571 -2058.96 0
-332.63 -1991.82 0
-375.929 -2440.79 0
-919.89 -1485.71 0
-1058.9 -1793.99 0
847.722 -1528.44 0
1054.59 -1794.06 0
263.617 -2078.63 0
446.502 -2514.15 0
50.6159 -2201.36 0
14.2137 -2642.15 0
713.026 -2029.59 0
800.788 -2366.83 0
948.023 -1766.49 0
1098.47 -2123.56 0
-633.194 -1973.21 0
-806.726 -2494.37 0
909.514 -683.714 0
1309.64 -926.512 0
-878.832 -1118.63 0
-1388.19 -1535.75 0
-1056.47 -1737.31 0
-1261.34 -2114.71 0
-351.273 -2348.73 0
-339.248 -2878.41 0
303.585 -2384.15 0
363.537 -2842.42 0
-915.555 -622.881 0
-1286.18 -779.379 0
755.684 -2314.77 0
750.79 -2781.04 0
824.972 -1250.56 0
1502.7 -1753.03 0
-778.756 -2454.91 0
-840.409 -2818.23 0
50.5247 -2566.64 0
50.3879 -3114.55 0
799.628 -2143.33 0
1146.04 -2598.28 0
-765.988 -2179.95 0
-1151.6 -2525.2 0
-1084.16 -1023.57 0
-1534.95 -1218.61 0
1247.76 -1710.33 0
1543.07 -2148.76 0
-333.972 -2847.15 0
-300.842 -3251.8 0
401.07 -2712.9 0
671.105 -3111.4 0
-1329.05 -1521.8 0
-1601.86 -1883.1 0
-929.476 -2470.35 0
-1174.71 -2905.96 0
1171.21 -1315.69 0
1674.74 -1465.55 0
-1230.06 -2025.48 0
-1514.65 -2423.34 0
-795.928 -2764.66 0
-741.312 -3277.01 0
936.083 -2492.01 0
1140.77 -3015.03 0
57.3067 -3088.39 0
84.8452 -3531.63 0
1112.96 -2062.45 0
1471.8 -2532.15 0
477.227 -2952.26 0
511.818 -3511.22 0
404.057 -375.11 0
970.1 -291.982 0
-1577.65 -1879.19 0
-1753.63 -2224.85 0
-373.229 -3118.69 0
-432.116 -3526.01 0
1034.81 -2942.62 0
1080.57 -3357.02 0
1109.02 -2601.72 0
1380.85 -2828.05 0
-1102.77 -2641.17 0
-1550.74 -2888.84 0
-1147.08 -2879.01 0
-1180.43 -3300.8 0
-1270.38 -1296.99 0
-1857.71 -1564.53 0
-790.182 -3137.34 0
-876.429 -3603.34 0
1548.77 -2115.24 0
1866.87 -2419.6 0
1486.9 -1765.97 0
1845.61 -1849.43 0
1240.28 -849.233 0
1736.42 -1097.51 0
-349.278 -3355.74 0
-194.584 -3896.62 0
161.153 -3397.64 0
316.923 -3861.52 0
1310.75 -2816.72 0
1574.04 -3224.07 0
580.342 -3299.21 0
735.015 -3819.63 0
-1184.68 -2769.6 0
-1512.31 -3283.32 0
1671.31 -2321.01 0
1843.4 -2839.7 0
-1182.45 -3289.71 0
-1223.91 -3667.16 0
-418.77 -3518.68 0
-613.901 -4000.19 0
1114.45 -3244.67 0
1341.5 -3624.06 0
-1728.29 -2146.82 0
-1978.88 -2526.03 0
-1207.39 -722.251 0
-1633.49 -806.734 0
-1518.97 -2893.25 0
-1839.88 -3158.55 0
220.685 -3747.21 0
147.276 -4217.72 0
1739.64 -1871.18 0
2033.18 -2125.11 0
-1607.97 -1571.98 0
-2114.36 -1984.46 0
-1510.09 -830.794 0
-1868.68 -1096 0
1118.25 -3395.3 0
1133.44 -3997.81 0
1642.96 -1440.8 0
2019.38 -1491.67 0
-334.671 -3754.52 0
-312.762 -4352.69 0
587.061 -3657.36 0
597.139 -4194.58 0
-894.306 -3531.93 0
-1050.49 -4123.83 0
1542.93 -3046.2 0
1891.21 -3390.41 0
-303.855 -188.426 0
-907.199 -238.125 0
1860.02 -2419.91 0
2223.74 -2618.35 0
-1357.79 -3188.7 0
-1617.46 -3817.34 0
-610.068 -3980.52 0
-789.869 -4383.35 0
-1251.34 -3596.6 0
-1443.98 -4069.24 0
882.246 -376.374 0
1316.51 -419.835 0
134.917 -4186.25 0
12.0705 -4530.88 0
1295.98 -3610.55 0
1560.43 -4014.03 0
1879.66 -2606.69 0
2192.19 -3035.22 0
-2052.75 -1975.52 0
-2312.69 -2352.25 0
240.101 -4021.26 0
403.534 -4678.42 0
-1380.12 -3028.34 0
-1988.76 -3644.2 0
1653.08 -1779.12 0
2317.84 -1831.71 0
1148.82 -3959.45 0
1225.54 -4408.53 0
679.518 -3973.75 0
818.205 -4448.33 0
-1957.24 -2463.43 0
-2300.66 -2938.34 0
-689.547 -4283.36 0
-647.862 -4689.06 0
-1461.55 -1332.89 0
-2226.22 -1476.49 0
84.9837 -4469.6 0
10.0839 -4894.64 0
698.713 -4294.46 0
727.506 -4775.53 0
-1067.97 -4091.91 0
-1294.04 -4556.1 0
1753.34 -3348.54 0
2068.95 -3802.05 0
-338.586 -4221.5 0
-398.063 -4893.05 0
-769.805 -4363.35 0
-984.794 -4780.24 0
LINES 239 717
2 4 1
2 0 2
2 8 3
2 6 4
2 12 5
2 2 6
2 124 7
2 16 8
2 18 9
2 2 10
2 36 11
2 4 12
2 22 13
2 6 14
2 28 15
2 10 16
2 42 17
2 8 18
2 32 19
2 14 20
2 30 21
2 12 22
2 34 23
2 14 24
2 44 25
2 50 26
2 26 27
2 20 28
2 38 29
2 20 30
2 52 31
2 18 32
2 40 33
2 22 34
2 48 35
2 192 36
2 84 37
2 54 38
2 62 39
2 56 40
2 58 41
2 26 42
2 60 43
2 24 44
2 74 45
2 34 46
2 64 47
2 46 48
2 66 49
2 16 50
2 98 51
2 30 52
2 68 53
2 28 54
2 110 55
2 32 56
2 72 57
2 40 58
2 80 59
2 76 60
2 78 61
2 88 62
2 70 63
2 46 64
2 82 65
2 48 66
2 92 67
2 52 68
2 86 69
2 62 70
2 120 71
2 56 72
2 90 73
2 44 74
2 146 75
2 42 76
2 106 77
2 60 78
2 112 79
2 58 80
2 102 81
2 64 82
2 104 83
2 36 84
2 168 85
2 94 86
2 86 87
2 38 88
2 144 89
2 96 90
2 114 91
2 66 92
2 118 93
2 68 94
2 132 95
2 72 96
2 108 97
2 50 98
2 98 99
2 88 100
2 142 101
2 80 102
2 128 103
2 82 104
2 122 105
2 138 106
2 126 107
2 96 108
2 136 109
2 54 110
2 182 111
2 78 112
2 112 113
2 90 114
2 140 115
2 94 116
2 130 117
2 92 118
2 150 119
2 70 120
2 120 121
2 104 122
2 154 123
2 24 124
2 202 125
2 106 126
2 166 127
2 102 128
2 162 129
2 116 130
2 164 131
2 116 132
2 152 133
2 108 134
2 170 135
2 156 136
2 160 137
2 76 138
2 176 139
2 114 140
2 188 141
2 100 142
2 194 143
2 100 144
2 174 145
2 74 146
2 146 147
2 128 148
2 184 149
2 118 150
2 172 151
2 132 152
2 190 153
2 122 154
2 186 155
2 134 156
2 196 157
2 142 158
2 208 159
2 136 160
2 200 161
2 148 162
2 198 163
2 130 164
2 206 165
2 126 166
2 222 167
2 84 168
2 178 169
2 134 170
2 170 171
2 150 172
2 204 173
2 216 174
2 174 175
2 226 176
2 210 177
2 168 178
2 178 179
2 164 180
2 218 181
2 110 182
2 182 183
2 148 184
2 236 185
2 154 186
2 220 187
2 140 188
2 232 189
2 152 190
2 234 191
2 10 192
2 192 193
2 158 194
2 194 195
2 214 196
2 196 197
2 162 198
2 238 199
2 160 200
2 200 201
2 124 202
2 202 203
2 212 204
2 228 205
2 180 206
2 206 207
2 158 208
2 208 209
2 176 210
2 210 211
2 172 212
2 212 213
2 156 214
2 214 215
2 144 216
2 216 217
2 180 218
2 218 219
2 186 220
2 230 221
2 166 222
2 222 223
2 198 224
2 224 225
2 138 226
2 226 227
2 204 228
2 228 229
2 220 230
2 230 231
2 188 232
2 232 233
2 190 234
2 234 235
2 184 236
2 236 237
2 224 238
2 238 239
CELL_DATA 239
SCALARS radius float
LOOKUP_TABLE default
0.000345197
0.00329787
0.000284747
0.0019258
0.000374296
0.00266337
0.000168445
0.00220541
0.000360071
0.00257001
0.0002812
0.0019221
0.000282983
0.00227345
0.000220656
0.00250178
0.000381291
0.00220383
0.000394581
0.00218362
0.000428073
0.00191735
0.000391497
0.00110206
0.000398353
0.00164342
0.000538614
0.00171654
0.000453052
0.00174943
0.000443118
0.00220062
0.00050358
0.0019153
0.000222424
0.00103787
0.000323305
0.00161889
0.000359672
0.00165661
0.000325385
0.00162391
0.000383094
0.000963657
0.000515671
0.00190983
0.000420535
0.00152707
0.000417706
0.00170215
0.000445846
0.00174085
0.000377013
0.00171532
0.000340266
0.00219638
0.000479399
0.00164095
0.000419909
0.0010102
0.000435024
0.000989487
0.000490694
0.00150443
0.0005173
0.00152549
0.00042782
0.00173123
0.000439545
0.000973385
0.000501546
0.00182208
0.000367418
0.00094041
0.00053585
0.00161687
0.000396147
0.00099149
0.000586191
0.00163667
0.000340642
0.00149339
0.000498285
0.00103094
0.000507599
0.000761353
0.000709003
0.00160697
0.000319711
0.00128356
0.000428551
0.00151498
0.000350842
0.00172524
0.000372087
0.00181095
0.000539269
0.000789986
0.000739491
0.00147069
0.000375599
0.00162741
0.000524755
0.00147241
0.000606862
0.00117881
0.000356519
0.00156382
0.000384357
0.000929958
0.000493046
0.00096275
0.000884053
0.00127345
0.000563533
0.00167433
0.000526423
0.00150352
0.000576408
0.000929906
0.000878481
0.00145314
0.000631568
0.000762654
0.000495637
0.00116371
0.000535809
0.00162242
0.000321033
0.00140834
0.000554122
0.00123867
0.000472871
0.00154214
0.000449402
0.00111597
0.000332178
0.001473
0.000598579
0.00125706
0.000533123
0.00125548
0.000318674
0.00106328
0.000561363
0.000885592
0.00081467
0.00160391
0.000647399
0.00149713
0.000619404
0.00122737
0.000659725
0.00141696
0.000684865
0.00143516
0.000627707
0.00124417
0.000749044
0.00110056
0.000630031
0.0013372
0.00039833
0.00138338
0.00054179
0.00115245
0.000607845
0.00102023
0.000638038
0.000892762
0.000853065
0.00146809
0.000504937
0.000860904
0.000772594
0.00105003
0.000556785
0.000976502
0.000875647
0.00135309
0.000585242
0.000914518
0.00086401
0.00120163
0.000694751
0.00137384
0.000770994
0.00121812
0.000584091
0.00120352
0.000730176
0.00109595
0.00058321
0.000901975
0.000888516
0.000970584
0.000873724
0.001331
0.000535942
0.00109038
0.0010152
0.000759905
0.000681886
0.00126048
0.000769928
0.00102095
0.000967319
0.00106032
0.000917298
0.000980718
0.000916825
0.00143037
0.000973933
0.00116131
0.000867059
0.00105355
0.000809954
0.00112218
0.00106639
0.00131459
0.000848138
0.00111247
0.00104835
0.001319
0.00095727
0.00115927
0.000736932
0.00123287
0.00112334
0.00121948
0.00106367
0.00118308
0.00113358
0.00113344
0.00102179
0.0011354
0.00104107
0.00112334
0.00108111
