# vtk DataFile Version 3.0
Tree
ASCII
DATASET POLYDATA
POINTS 200 float
0 0 0
0.201442 -0.83204 0
0.100721 -0.41602 0
-0.596409 -0.878271 0
0.151081 -0.62403 0
-0.193066 -1.70933 0
0.176262 -0.728035 0
0.828723 -1.55866 0
-0.247844 -0.647146 0
-1.01156 -1.44634 0
0.188852 -0.780037 0
0.247129 -2.41837 0
-0.0209922 -1.16668 0
-0.8332 -2.33507 0
0.0503605 -0.20801 0
1.15525 -0.673388 0
0.502492 -1.14335 0
1.2748 -2.25683 0
-0.107029 -1.43801 0
-0.340394 -3.04554 0
-0.629703 -1.04674 0
-1.54563 -2.07044 0
0.21799 -1.5992 0
0.838385 -3.19994 0
-0.427096 -1.75088 0
-1.2912 -3.04582 0
0.0251802 -0.104005 0
-1.56485 -0.90625 0
0.232559 -2.00878 0
0.0325215 -3.79738 0
0.602804 -0.440699 0
1.78378 -1.23537 0
-0.223711 -2.24178 0
-0.808737 -3.63037 0
0.888646 -1.70009 0
1.75754 -3.23709 0
-1.08767 -1.55859 0
-2.12483 -2.53573 0
0.528187 -2.39957 0
1.03121 -4.19218 0
0.665608 -1.351 0
2.15725 -2.03321 0
-0.282053 -2.64366 0
-0.596174 -4.59127 0
-1.31665 -1.81451 0
-2.13919 -3.36037 0
-0.516224 -2.93607 0
-1.58246 -4.15958 0
0.13254 -2.90308 0
0.388941 -4.68488 0
1.32309 -2.46859 0
1.87221 -4.07972 0
-0.769835 -0.505127 0
-2.22819 -1.49231 0
1.54032 -2.85284 0
2.47088 -3.43079 0
1.41143 -1.69211 0
2.65472 -2.59651 0
-1.72792 -2.58744 0
-2.44564 -3.91293 0
1.19329 -0.838034 0
2.45677 -1.48584 0
-1.49901 -0.998721 0
-2.65036 -2.01897 0
-1.52228 -2.20098 0
-2.57146 -3.07045 0
1.82503 -1.16194 0
2.71407 -1.92008 0
2.0056 -3.14181 0
2.73244 -3.93857 0
-1.60625 -2.04716 0
-2.90199 -2.56149 0
2.03308 -2.14431 0
3.01985 -3.06201 0
-2.04687 -2.63571 0
-2.98995 -3.59847 0
-0.662481 -3.28322 0
-1.17694 -4.54669 0
1.59765 -3.27415 0
1.42966 -4.39479 0
1.64893 -3.04496 0
2.37305 -4.258 0
-2.30917 -2.85308 0
-3.20211 -3.01871 0
0.082531 -3.35023 0
-0.102188 -4.67326 0
-1.6251 -2.39421 0
-1.76082 -3.56967 0
0.879025 -0.557043 0
1.93664 -0.653305 0
2.3439 -2.37041 0
3.20972 -2.43762 0
-1.8636 -1.24552 0
-2.76023 -1.40035 0
1.43171 -2.66071 0
1.90441 -2.58736 0
-1.16734 -0.705689 0
-2.21554 -0.882595 0
-1.69296 -2.98194 0
-1.9657 -4.03878 0
0.260741 -3.79398 0
0.754459 -4.48773 0
-2.04589 -1.36892 0
-3.03728 -1.81608 0
1.73493 -3.67694 0
1.96112 -4.4744 0
-2.54158 -1.5925 0
-3.3971 -2.56344 0
2.49931 -2.48346 0
3.46486 -3.00439 0
-0.372327 -0.304566 0
-1.14508 -0.22224 0
2.1409 -1.32389 0
2.89577 -1.54115 0
2.51833 -1.43252 0
3.21346 -1.89519 0
1.50916 -0.999985 0
2.39873 -0.881544 0
-1.34696 -1.80288 0
-1.88038 -1.75354 0
2.77681 -2.40402 0
3.62281 -2.63231 0
-0.571081 -0.404847 0
-1.53101 -0.351026 0
1.66806 -2.62404 0
2.47529 -2.99407 0
1.10587 -2.08434 0
0.822919 -2.29643 0
-1.6813 -1.12212 0
-2.61724 -0.970219 0
1.46037 -2.87137 0
1.21298 -3.24157 0
2.23824 -3.2863 0
3.02943 -3.57611 0
1.98296 -1.24291 0
2.84137 -1.18037 0
-2.31191 -1.32293 0
-3.08391 -1.38561 0
0.339377 -0.935692 0
0.893474 -1.04958 0
-1.65903 -2.68808 0
-1.31556 -3.35848 0
0.326582 -0.324354 0
0.786486 -0.186039 0
1.21448 -2.27646 0
0.995578 -2.65019 0
-2.78943 -1.70429 0
-3.43515 -2.03026 0
-1.41947 -2.00775 0
-1.24335 -2.36942 0
-0.968589 -0.605408 0
-1.91441 -0.468015 0
-0.858685 -1.30267 0
-0.717343 -1.71799 0
2.70705 -1.48684 0
3.22819 -1.49914 0
2.8659 -1.66385 0
3.35055 -2.13259 0
0.196641 -3.34853 0
0.626773 -3.79412 0
3.03968 -1.77952 0
3.84206 -2.22496 0
-2.66551 -1.64839 0
-3.31351 -1.56396 0
0.695569 -1.42172 0
0.654833 -1.86227 0
-3.11229 -1.86727 0
-3.86453 -2.23268 0
1.33668 -3.05647 0
1.18307 -3.56225 0
0.18255 -2.45593 0
0.416907 -3.0034 0
1.35123 -0.919009 0
2.19483 -0.641674 0
1.26879 -2.37253 0
1.59995 -2.30375 0
-0.369968 -2.58892 0
-0.9601 -3.00455 0
0.740915 -0.498871 0
1.17466 -0.265229 0
-1.13442 -0.751924 0
-1.01662 -1.08729 0
-2.14927 -1.04617 0
-2.98246 -1.0933 0
-3.27372 -1.94877 0
-3.72048 -2.50577 0
-2.51841 -3.11709 0
-2.52815 -3.48617 0
-1.31672 -0.875322 0
-1.27697 -1.27338 0
1.48854 -1.0367 0
1.74015 -1.515 0
2.96762 -1.49299 0
3.67036 -1.70255 0
-1.20216 -1.68655 0
-1.09234 -1.95806 0
-2.44032 -2.96177 0
-2.97452 -3.22249 0
-3.48841 -2.04998 0
-3.89909 -1.95329 0
LINES 199 597
2 10 1
2 14 2
2 8 3
2 2 4
2 18 5
2 4 6
2 40 7
2 2 8
2 20 9
2 6 10
2 28 11
2 4 12
2 24 13
2 26 14
2 88 15
2 138 16
2 34 17
2 12 18
2 42 19
2 8 20
2 44 21
2 10 22
2 38 23
2 12 24
2 24 25
2 0 26
2 96 27
2 22 28
2 84 29
2 142 30
2 190 31
2 18 32
2 76 33
2 164 34
2 80 35
2 152 36
2 70 37
2 22 38
2 38 39
2 16 40
2 56 41
2 32 42
2 42 43
2 194 44
2 58 45
2 176 46
2 46 47
2 170 48
2 100 49
2 174 50
2 104 51
2 122 52
2 102 53
2 94 54
2 132 55
2 40 56
2 108 57
2 86 58
2 58 59
2 30 60
2 112 61
2 188 62
2 62 63
2 148 64
2 196 65
2 116 66
2 66 67
2 54 68
2 68 69
2 118 70
2 70 71
2 56 72
2 72 73
2 64 74
2 186 75
2 46 76
2 76 77
2 130 78
2 78 79
2 54 80
2 80 81
2 74 82
2 82 83
2 48 84
2 84 85
2 64 86
2 98 87
2 178 88
2 88 89
2 72 90
2 120 91
2 128 92
2 136 93
2 50 94
2 124 95
2 150 96
2 96 97
2 140 98
2 98 99
2 158 100
2 100 101
2 92 102
2 146 103
2 78 104
2 104 105
2 102 106
2 106 107
2 90 108
2 108 109
2 26 110
2 110 111
2 134 112
2 154 113
2 112 114
2 160 115
2 172 116
2 116 117
2 36 118
2 118 119
2 90 120
2 120 121
2 110 122
2 122 123
2 94 124
2 124 125
2 34 126
2 126 127
2 62 128
2 182 129
2 50 130
2 168 131
2 68 132
2 132 133
2 66 134
2 134 135
2 92 136
2 136 137
2 6 138
2 138 139
2 86 140
2 140 141
2 14 142
2 142 143
2 126 144
2 144 145
2 162 146
2 184 147
2 44 148
2 148 149
2 52 150
2 150 151
2 20 152
2 152 153
2 114 154
2 192 155
2 114 156
2 156 157
2 48 158
2 158 159
2 156 160
2 160 161
2 106 162
2 162 163
2 16 164
2 164 165
2 146 166
2 198 167
2 130 168
2 168 169
2 28 170
2 170 171
2 60 172
2 172 173
2 144 174
2 174 175
2 32 176
2 176 177
2 30 178
2 178 179
2 52 180
2 180 181
2 128 182
2 182 183
2 166 184
2 184 185
2 74 186
2 186 187
2 180 188
2 188 189
2 60 190
2 190 191
2 154 192
2 192 193
2 36 194
2 194 195
2 82 196
2 196 197
2 166 198
2 198 199
CELL_DATA 199
SCALARS radius float
LOOKUP_TABLE default
0.522539
4.98336
0.879794
4.44342
0.83307
4.08637
0.814066
3.3027
0.974736
2.73246
0.947818
2.69137
1.13635
5.33894
0.883658
3.60811
1.05813
2.48727
1.03444
3.28176
0.931027
2.72608
1.2205
1.60146
1.38206
5.72354
0.999695
2.47665
1.15511
3.02552
1.01882
2.45572
1.12248
3.15175
0.95532
3.2264
1.21806
1.71763
1.48116
2.45871
1.15564
1.6785
1.53574
2.99566
1.29323
2.03978
1.49775
2.35518
1.46735
3.01724
1.27457
3.20632
0.870724
2.32341
1.14122
2.4286
0.982233
1.75588
1.48135
2.89803
1.00874
3.00097
1.32647
2.9286
1.03607
2.65447
1.29832
2.01339
1.47707
1.68651
1.44061
2.33804
1.42026
2.31797
1.49041
1.72434
1.54846
2.04866
1.46023
1.63622
1.51954
1.91615
1.45552
1.71308
1.51627
2.33086
1.26544
1.35212
1.21236
2.14838
1.26629
2.761
1.14448
2.51475
0.970685
1.42899
1.24267
1.73625
1.47479
1.8361
1.44714
2.58703
1.02884
1.76353
1.50577
2.55372
1.44911
1.64452
1.51827
3.28083
1.01913
2.44743
0.979457
2.38892
1.09479
2.72855
1.17205
1.81865
1.06801
1.76179
1.50926
3.24772
1.0895
1.4979
1.34741
3.11148
0.931422
2.91197
1.12966
2.26142
1.00613
1.70301
1.51145
2.54661
1.22884
1.55131
1.30731
3.63005
0.95181
1.93542
1.26322
3.05194
0.901235
3.08341
0.99854
2.26771
1.0761
2.96537
0.985828
1.6419
1.14681
3.25284
0.940745
1.79229
1.14944
1.98962
1.37153
2.00305
1.22687
1.74308
1.58526
2.38761
1.24918
3.17838
0.928445
2.1948
1.42739
1.43688
1.24893
2.42949
1.08461
2.79502
1.15008
3.0481
0.947848
2.1602
1.16804
1.49708
0.959512
3.05586
0.889142
1.53893
1.3012
1.67941
1.51692
1.75647
1.28228
3.03056
0.931128
1.35798
1.13101
1.68894
1.48867
3.02098
0.882603
1.58101
1.41609
1.80042
1.43059
