# vtk DataFile Version 4.2
vtk output
ASCII
DATASET POLYDATA
POINTS 1072 float
39625 60070 13662.6 39625 60070 15662.6 39500 58000 14871.1 
39500 57872 15000 41052.2 57250 16000 37750 57082.5 15750 
42371 56500 17000 37500 57069.5 18250 36173.8 57000 17000 
43575.7 54750 17000 37500 56525.5 20750 36250 56081 20250 
35750 56570.5 18250 34250 56030 18000 45250 53297.7 16500 
37931 55500 23000 36750 55581.5 21750 36000 55513.5 22000 
35250 55578.5 20750 33727.2 55500 19250 45250 52053 16750 
38250 54528.8 25250 35250 54580.5 22750 36250 55000 23257.8 
34700.7 55000 21750 32750 54509 20750 46500 50250 16906 
37750 53750 26546 34970.2 54000 24500 33250 53750 23045.1 
32500 53566.5 22250 30837 53000 21000 47000 49000 17022.9 
46250 48500 17565.7 37750 53500 28279.8 36250 53081 27250 
35750 53510.5 26250 34000 53069 25250 32250 52580 24250 
29250 51550.3 20500 29750 52000 21776.9 47500 46750 17365.4 
47316 47000 17500 38175.8 53500 31250 35674.3 53000 29000 
34500 52570 27250 34750 52582.2 27250 28129.2 50500 21000 
29250 51080 22250 28750 50852.7 22500 47750 45500 17525.3 
47000 44750 18058.6 33936.5 52250 29250 33442.9 53452.4 28312.2 
32061.8 52295.6 26390.8 34640.6 52836.3 28773.3 33250 52082.2 27250 
26926.3 48250 20500 29250 50567.2 25000 28250 50064 22750 
27629 49500 23500 48000 43750 17555 32500 52053.5 30250 
32250 51574.5 28500 31750 51574 27000 26418 46750 19750 
26000 47255.2 21250 30000 50867.2 26750 28000 49555.2 26250 
27450.3 49250 25500 26471 48250 23500 48250 42000 17565.2 
47250 42250 18082.3 31500 52355.3 32750 30750 51081.7 29750 
30250 51029.5 29250 26418 45250 18250 25944.7 45750 19500 
25443 45500 21750 28750 50050.5 28250 28000 49555 28000 
26449.8 48250 26500 26250 48048.8 26250 25918.5 46750 22750 
26250 47551 23500 48545 40500 17750 47750 40000 18074.4 
31000 52851.7 34750 30750 52081 33250 29000 51000 30960.5 
29500 51313 31250 26445.2 44000 16750 26000 44500 18188.7 
25490 44750 20250 24943.5 43750 22500 24972.5 43750 21750 
28250 49581.5 28750 27000 49023 29500 26000 47873.2 28750 
24694.4 46199.9 26485.5 25250 46527.7 25750 25471 46750 24000 
48550.8 39250 17750 30500 53055 36500 31500 53061 36000 
29367 52054.5 34591.8 27951 51000 32500 27750 50065.8 30750 
26943.5 42750 15250 26000 42750 18245.4 25750 42454.8 19750 
25443 43000 20750 24918 43250 23250 24547.7 42750 23250 
24985.5 42000 22000 24750 46553 29500 24419 44250 26250 
24929.1 45250 24750 24971.2 45750 24500 48073.5 37750 18250 
30245 53500 38250 33000 53556.3 36750 27500 51366.5 34500 
26750 50080 32750 26500 49660.8 31500 27000 41250 14362.5 
26432.2 41500 18250 26000 41500 18958.9 25918 41250 20250 
24442.9 43000 24750 24490.5 41500 24000 25439 40250 22250 
25000 40971.7 22500 23930.3 44500 29250 23943.4 42750 27000 
24450.3 44500 25000 48556.5 36250 18750 48076.8 37250 18500 
29750 53081.5 38750 33750 54055.5 38750 27500 51864.7 36750 
25949.8 50250 35750 25750 50049.3 34750 25182 48500 31750 
27000 41000 14333.9 26918 39750 17750 26457.5 39250 18500 
26425.8 40000 19250 25950 40000 20000 25950.3 39000 20500 
24000 41500 25972.2 24443.9 40750 25250 24498.1 40250 24750 
25919 38250 22250 25490 38250 22750 23490.7 43000 28500 
23925.8 41750 28500 24427.7 43000 25250 49010.3 34750 19250 
48581 35250 19250 27750 51564 39250 34000 54057 40250 
35250 54056.5 39500 28750 52572 38000 26000 50250 37256.5 
25000 48755 35750 24443.8 47750 33750 24188.4 47000 31750 
27438 39000 14500 27425.8 38000 16750 27250 36750 17954.1 
26419 37750 20750 24144.9 40500 26750 24419 40250 26750 
24946.8 38500 25000 26419 36250 22250 26000 36750 22220.4 
25498 37250 23750 23949 40000 28750 49500 33280.5 20250 
49069.8 33000 19250 34000 54556.3 42000 34250 54071.3 40750 
36000 54056.8 41000 25989.5 48750 38750 23958.3 46250 34000 
23927.7 44500 32750 23499.2 45250 31250 27917.7 36750 15750 
27456.2 37000 16250 27919 34750 17250 27443.5 35250 18000 
26500 35720.5 21250 24458.3 38500 27250 26925.8 34750 22000 
25919 36250 24750 25500 36719.2 24750 24260.4 39532.6 30771.4 
50000 32057.5 21500 49582.2 30750 20250 34000 54556.5 43750 
34000 54556.5 43500 35250 54071.5 41250 36500 54514.5 43500 
36356.8 54500 43250 26750 48544.5 40750 25500 47250 38755 
24427.7 45000 35250 24417.9 42750 34750 23500 43250 32254 
23444.9 44500 31750 27943.5 35250 14750 28430.3 33250 16500 
27990 33250 17250 27947 33250 17750 24964.5 37250 27250 
27186.8 33500 21750 26418 34750 25250 26000 35000 25443.5 
25965.3 35250 25250 49582.2 29250 19250 34000 54541.8 45750 
36750 54555.8 45750 37500 54069.8 44250 37250 54082 44250 
27750 49044.5 42750 26500 47250 41256.2 24998.2 45250 38250 
24927.5 44250 37250 24919.1 41750 36250 24456.2 41750 35500 
23944.3 41500 32750 23490.5 42000 31000 28432.2 33500 14750 
28919 31750 16250 28946.3 31250 15750 28458.3 31500 17250 
28438 32000 18000 25971.3 34750 26500 27918 32250 21250 
27498.2 32250 21750 26750 33450.5 26750 26646.5 33500 25500 
50000 27500 18459.1 34750 54500 46780.5 33750 53578.3 47250 
36750 54555.8 47750 37750 54072.8 46750 39549.5 53750 44500 
28642.3 49750 44000 27931 47750 43750 26713.9 46439.6 42675.8 
26000 45250 40823.2 24688.2 43750 37000 24965 43250 37750 
25438.2 41000 37500 25000 41000 36817.5 24958.2 40750 36500 
24439.1 40750 33750 24000 40245 32250 23927.7 41250 30500 
28935.5 31500 14750 29923.5 29250 15000 29000 29746 17250 
28930.3 30500 17750 28927.7 30250 18500 28428.2 30750 21000 
28448 30500 20250 28250 30950.5 23000 26949.5 33250 29000 
27139 32500 27250 50049.5 26000 18000 50056.5 26000 19000 
35720.5 54500 48250 34160.3 53000 49250 37750 54072.3 49000 
38631.6 54784.1 48769.4 39750 53572 46750 41250 53250 44045.2 
40825.5 53500 45250 29421.5 50250 44750 28945 47250 46000 
25500 43500 39326.5 24925.5 43000 36750 26250 40453.5 39250 
25490.5 40500 38000 25919 39750 37750 24931 40000 35250 
24500 40000 34528.3 24443.2 39000 31750 24000 39745.5 31250 
30418.2 27750 14750 30250 27750 15954.8 29433 28750 18500 
29476.7 28250 18000 28928 29750 21250 29250 28950.5 20000 
28242.4 29057.5 19610.1 28750 29951 24250 26926.3 33750 31000 
27000 33141.8 30500 28147.8 31000 27000 49573 25000 17250 
50056.5 25250 20750 50056.5 24500 19750 36500 54010 50000 
35500 52671 51000 33613 51250 50500 38500 53837.7 51250 
39500 53555 49750 41500 53000 47058.8 42500 53056.5 43000 
42750 53025 44500 42750 52582 45250 30490.5 51250 46250 
30442.5 51000 46250 30185.2 47750 48000 28997.2 45750 46750 
24360.4 41927.9 37391.5 26942.8 40750 41250 26500 39000 39321.3 
26000 38719 37750 24928.3 37750 31500 24957.6 37000 30750 
24426.1 39250 30500 31250 25936 14750 30944.3 26000 16000 
29928 27750 19500 30428 26750 18500 30471 26250 17500 
29918.5 28250 22750 29688 28500 24250 26750 34435.5 32750 
27500 32750 32277.5 27500 32630 31500 29250 29949.8 27250 
28103.5 29434.3 26200.7 49750 23750 16072.9 50000 25500 23057.9 
49580.5 24250 22250 50000 23682.6 21000 49572 22750 20000 
37250 53500 51298.2 35250 51750 52048.8 32500 49500 50551 
38750 53000 53257.5 39750 53080.2 52250 39812.2 53500 51500 
41394 52932 49802.2 43500 53056 41250 44000 52811.7 42750 
44500 52549.5 44000 43750 52510.3 45750 44000 52355.3 45750 
31500 51860.7 47000 31750 52067.2 46750 30500 46000 49054.7 
29918.5 44250 47750 28976 44000 46750 27440.5 41500 42750 
27500 39750 42256.2 27750 37453.8 40250 26648.5 37750 38500 
26918 37250 37750 26000 37719 36750 25429.5 36750 32250 
25918.2 35750 31750 25471 35750 29500 24917.9 37750 28750 
32130.5 24000 14750 32000 24000 15429.8 31137.3 25000 17750 
30136 27000 20000 31418.5 25250 19250 31928 24250 17250 
31250 27250 25048.5 30193.8 27500 23250 26933.3 34750 34500 
26473.2 35250 34500 28444.3 32250 33750 28449 31750 32500 
30250 29420 28750 30500 28187.3 26250 49750 22250 15581.4 
50043.3 23000 16000 50000 26500 24529.6 49351 24500 23750 
49163.5 25000 24500 48549.8 22750 22750 49078.5 22750 21750 
48667 21000 20500 37722.8 53000 52750 36127 51000 54000 
34250 49750 52552 32933.3 48000 51750 31460.5 48500 49750 
39000 52356.8 54500 38250 52078.3 54250 41250 51750 52550 
44549.5 52750 39500 45549.3 52250 42000 45750 52031.7 43500 
45750 52002 44750 44250 52010.3 47250 45250 51581.5 46250 
32500 51773.5 48750 32797 53189.3 48805.3 32432.8 52750 46750 
31750 45500 51045 30500 44750 49327.3 30430 43250 48750 
30500 43500 49313 29427.7 42750 46750 28689.3 43250 46000 
27933.5 42750 44000 28418.5 40250 43750 28324.4 39754.3 43464.2 
28000 38250 41799.3 28000 36450.7 40000 27433 35750 37500 
26418.2 36750 35750 25687 37500 35250 25971 34750 28500 
25418 36750 27250 33444.8 22250 14500 32628 23000 16750 
31000 25243 18750 31250 25935.5 21250 30647.8 26000 20000 
32750 23750 20548.5 32500 23228.5 19250 32449.5 26750 26500 
30500 26750 21777.5 29250 31932.2 35250 29500 30250 32277 
30449.8 29250 30500 31500 28129 29250 49887.2 21000 15250 
48750 20447.7 16500 49555.2 22250 17500 49578.5 27750 26250 
50000 27220.2 25250 48325.4 24826.9 25780.2 47500 23000 24161.2 
47250 24421.5 25750 47250 21442.4 22500 48500 20341.4 20000 
47000 19936.1 20750 37122.5 50750 55500 35000 48750 54799.3 
33750 47750 53528.5 32011.7 46346.6 52026.4 30929.5 46750 49250 
39000 51500 55846 42564.5 50500 53000 42067.7 50750 52750 
45549.5 52250 38000 47000 51371 40750 46500 51852.2 42500 
47371 51000 43250 46250 51353.5 46000 44500 51355.3 48750 
32647 46000 52500 31971 43750 51750 29751.2 41231.2 50076.3 
30250 41750 48049.8 29188 40750 46000 28000 43250 44756.7 
28418.2 42750 44750 29418.2 39750 45250 28921.5 37250 42250 
28934.2 34750 39750 28000 35453 39000 28421.7 34250 37750 
27500 34750 36777.2 34750 20450.9 14500 33949.7 21250 16000 
33750 21750 18043.9 32629.5 23000 18500 32250 25434.2 23250 
33973 23250 22250 33000 22631 18750 33435.5 26750 28250 
33250 26000 26300.5 30000 30837.7 35500 31250 28920 32250 
49750 20500 15068.7 48000 18946 16500 48580 20250 18750 
49250 28451.5 28000 50010 29000 27000 46000 24443.8 27250 
45750 23465.2 25750 46250 21692 23500 46000 20500 22162.3 
45250 19086.2 20500 38250 50500 56771 37250 49550 56750 
[...]
POINT_DATA 1072
FIELD FieldData 1
vm 1 1072 float
0 0 0 0 0 0 0 0 0 
0 0 0 0 0 0 0 0 0 
0 0 0 0 0 0 0 0 0 
0 0 0 0 0 0 0 0 0 
0 0 0 0 0 0 0 0 0 
0 0 0 0 0 0 0 0 1 
1 1 0 0 0 0 0 0 0 
0 0 0 0 0 0 0 0 0 
0 0 0 0 0 0 0 0 0 
0 0 0 0 0 0 0 0 0 
0 0 0 0 0 0 0 0 0 
1 0 0 0 0 0 1 0 0 
0 0 0 0 0 0 0 0 0 
0 0 0 0 0 0 0 0 0 
0 0 0 0 0 0 0 0 0 
0 0 0 0 0 0 0 0 0 
0 0 0 0 0 0 0 0 0 
0 0 0 0 0 0 0 0 0 
0 0 0 0 0 0 0 0 0 
0 0 0 0 0 0 0 0 0 
0 0 0 0 0 0 0 0 0 
0 0 0 0 0 0 0 0 1 
0 0 0 0 0 0 0 0 0 
0 0 0 0 0 0 0 0 0 
0 0 0 0 0 0 0 0 0 
0 0 0 0 0 0 0 0 0 
0 0 0 0 0 0 0 0 0 
0 0 0 0 0 0 0 0 1 
0 0 0 0 0 0 0 0 0 
0 0 0 0 0 0 0 0 0 
0 0 0 0 0 0 1 0 0 
0 0 0 0 0 0 0 0 0 
0 0 0 0 0 0 0 0 0 
1 0 0 0 0 0 0 0 0 
0 0 0 0 0 0 0 0 0 
0 0 0 1 0 0 0 0 0 
0 0 0 0 0 0 0 0 0 
0 0 0 1 0 0 0 0 0 
0 0 0 0 0 0 1 0 0 
0 0 0 0 0 0 0 0 0 
0 0 0 0 0 0 0 0 0 
0 0 0 0 0 0 0 0 0 
0 0 0 0 0 0 0 0 0 
0 0 0 0 0 0 0 0 0 
0 0 0 0 0 0 0 0 0 
0 1 0 0 0 0 0 0 0 
0 0 1 0 0 0 0 0 0 
0 0 0 0 0 0 0 0 0 
0 0 0 0 0 0 0 0 0 
0 1 0 0 0 0 0 0 0 
0 1 0 0 0 0 0 0 0 
0 0 0 0 0 1 0 0 0 
0 0 0 0 0 0 0 0 0 
0 0 0 0 0 0 0 0 0 
0 0 0 0 0 0 0 0 0 
0 0 0 0 0 0 0 0 0 
0 0 0 0 0 0 0 0 0 
0 0 0 0 0 0 0 0 0 
0 0 0 0 0 0 0 0 0 
0 0 0 0 0 0 0 0 0 
0 0 0 0 0 0 0 0 0 
0 0 0 0 0 0 0 0 0 
0 0 0 0 0 0 0 0 0 
0 0 0 0 0 0 0 0 1 
0 0 0 0 0 0 0 0 0 
0 0 0 0 0 0 0 0 0 
0 0 0 0 0 0 0 0 0 
0 0 0 0 0 0 0 0 0 
0 0 0 0 0 0 0 0 0 
0 0 0 0 0 0 0 0 0 
0 0 0 0 0 0 0 0 0 
0 0 0 0 0 0 0 0 0 
0 0 0 0 0 0 0 0 0 
0 0 0 0 0 0 0 0 0 
0 0 0 0 0 0 0 0 0 
0 0 0 0 0 0 0 0 0 
0 0 0 0 0 0 0 0 0 
0 0 0 0 0 0 0 0 0 
0 0 0 0 0 0 0 1 1 
0 0 0 0 0 0 0 0 0 
0 0 0 0 0 0 0 0 0 
0 0 0 0 0 0 0 0 0 
0 0 0 0 0 0 0 0 0 
0 0 0 0 0 0 0 0 0 
0 0 0 0 0 0 0 0 0 
0 0 0 0 0 0 0 0 0 
0 0 0 0 0 0 0 0 0 
0 0 0 0 0 0 0 0 0 
0 0 0 0 0 0 0 0 0 
0 0 0 0 0 0 0 0 0 
0 0 0 0 0 0 0 0 0 
0 0 0 0 0 0 0 0 0 
0 0 0 0 0 0 0 0 0 
0 0 0 0 0 0 0 0 0 
0 0 0 0 0 0 0 0 0 
0 0 0 0 0 0 0 0 0 
0 0 0 0 0 0 0 0 0 
0 0 0 0 0 0 0 0 0 
0 0 0 0 0 0 0 0 0 
0 0 0 0 0 0 1 0 0 
0 0 0 0 0 0 0 0 0 
0 0 0 0 0 0 0 0 0 
0 0 0 0 0 0 0 0 0 
0 0 0 0 1 0 0 0 0 
0 0 0 0 0 0 1 0 0 
0 0 0 0 0 0 0 0 0 
0 0 0 0 0 0 0 0 0 
0 0 1 1 1 1 1 1 1 
1 1 1 1 1 1 1 1 1 
1 1 1 1 1 1 1 1 1 
1 1 1 1 1 1 1 1 1 
1 1 1 1 1 1 1 1 1 
1 1 1 1 1 1 1 1 1 
1 1 1 1 1 1 1 1 1 
1 1 1 1 1 1 1 1 1 
1 1 1 1 1 1 1 1 1 
1 1 1 1 1 1 1 1 1 
1 1 1 1 1 1 1 1 1 
1 1 1 1 1 1 1 1 1 
1 
METADATA
INFORMATION 0

