# vtk DataFile Version 3.0
Tree
ASCII
DATASET POLYDATA
POINTS 3819 float
-10 1900 4000
-10 1900 3980
-10 1900 3960
-10 1900 3940
-10 1900 3920
-10 1900 3900
-10 1900 3880
-10 1900 3860
-10 1900 3840
-10 1900 3820
-10 1900 3800
-10 1900 3780
-10 1900 3760
-10 1900 3740
-10 1900 3720
-10 1900 3700
-10 1900 3680
-10 1900 3660
-10 1900 3640
-10 1900 3620
-10 1900 3600
-10 1900 3580
-10 1900 3560
-10 1900 3540
-10 1900 3520
-10 1900 3500
-10 1900 3480
-10 1900 3460
-10 1900 3440
-10 1900 3420
-10 1894.39 3392.32
-10 1888.78 3364.64
-10 1883.17 3336.96
-10 1877.56 3309.3
-10 1871.95 3281.62
-10 1866.34 3253.94
-10 1860.73 3226.26
-10 1855.12 3198.58
-10 1849.51 3170.9
-10 1843.9 3143.22
-10 1838.29 3115.56
-10 1832.67 3087.88
-10 1827.06 3060.2
-10 1821.45 3032.52
-10 1815.84 3004.84
-10 1810.23 2977.16
-10 1804.62 2949.48
-10 1799.01 2921.82
-10 1793.4 2894.14
-10 1787.79 2866.46
-10 1782.18 2838.78
-10 1776.57 2811.1
-10 1770.96 2783.42
-10 1905.2 3394.34
-10 1911.16 3368.86
-10 1917.9 3343.56
-10 1925.38 3318.48
-10 1933.42 3293.56
-10 1942.06 3268.86
-10 1951.34 3244.38
-10 1961.26 3220.16
-10 1971.84 3196.2
-10 1982.94 3172.5
-10 1994.62 3149.06
-10 2006.84 3125.92
-10 2019.56 3103.04
-10 2032.78 3080.44
-10 2046.5 3058.16
-10 2060.72 3036.18
-10 2075.38 3014.5
-10 2090.5 2993.12
-10 2106.02 2972.04
-10 2121.96 2951.28
-10 2138.3 2930.82
-10 2155 2910.68
-10 2172.08 2890.84
-10 1770.96 2752.86
-10 1770.96 2722.32
-10 1770.96 2691.76
-10 1770.96 2661.2
-10 1770.96 2630.64
-10 1770.96 2600.08
-10 1770.96 2569.52
-10 1770.96 2538.96
-10 1770.96 2508.42
-10 1770.96 2477.86
-10 1770.96 2447.3
-10 1770.96 2416.74
-10 1770.96 2386.18
-10 1770.96 2355.62
-10 1770.96 2325.06
-10 1770.96 2294.52
-10 1770.96 2263.96
-10 1770.96 2233.4
-10 1770.96 2202.84
-10 1770.96 2172.28
-10 1770.96 2141.72
-10 1770.96 2111.16
-10 1770.96 2080.62
-10 1765.72 2771.04
-10 1760.48 2758.64
-10 1754.87 2746.42
-10 1749.02 2734.3
-10 1742.81 2722.36
-10 1736.28 2710.6
-10 1729.52 2698.96
-10 1722.44 2687.52
-10 1715.1 2676.26
-10 1707.44 2665.2
-10 1699.5 2654.32
-10 1691.32 2643.64
-10 1682.87 2633.18
-10 1674.17 2622.9
-10 1665.27 2612.82
-10 1656.12 2602.96
-10 1646.75 2593.3
-10 1637.2 2583.82
-10 1627.43 2574.58
-10 1617.47 2565.52
-10 1607.34 2556.68
-10 1597.05 2548
-10 1586.6 2539.54
-10 2190.32 2877.18
-10 2208.56 2863.52
-10 2226.8 2849.88
-10 2245.04 2836.22
-10 2263.28 2822.56
-10 2281.5 2808.9
-10 2299.74 2795.26
-10 2317.98 2781.6
-10 2336.22 2767.94
-10 2354.46 2754.28
-10 2372.7 2740.64
-10 2390.94 2726.98
-10 2409.16 2713.32
-10 2427.4 2699.66
-10 2445.64 2686.02
-10 2463.88 2672.36
-10 2482.12 2658.7
-10 2500.36 2645.04
-10 2518.58 2631.4
-10 2536.82 2617.74
-10 2555.06 2604.08
-10 2573.3 2590.42
-10 2591.54 2576.78
-10 2183.12 2871.9
-10 2193.6 2852.66
-10 2203.5 2833.12
-10 2212.82 2813.28
-10 2221.72 2793.26
-10 2230.14 2773.04
-10 2238.06 2752.6
-10 2245.48 2731.98
-10 2252.34 2711.18
-10 2258.68 2690.2
-10 2264.54 2669.1
-10 2269.92 2647.86
-10 2274.78 2626.48
-10 2279.16 2605.02
-10 2283.06 2583.46
-10 2286.52 2561.82
-10 2289.48 2540.12
-10 2292.02 2518.34
-10 2294.12 2496.54
-10 2295.78 2474.68
-10 2297.02 2452.82
-10 2297.86 2430.92
-10 2298.26 2409
-10 2293.98 2387.82
-10 2289.7 2366.64
-10 2285.42 2345.46
-10 2281.16 2324.28
-10 2276.88 2303.1
-10 2272.6 2281.92
-10 2268.32 2260.74
-10 2264.04 2239.56
-10 2259.76 2218.38
-10 2255.48 2197.2
-10 2251.22 2176.02
-10 2246.94 2154.84
-10 2242.66 2133.66
-10 2238.38 2112.48
-10 2234.1 2091.28
-10 2229.82 2070.1
-10 2225.54 2048.92
-10 2221.26 2027.74
-10 2217 2006.56
-10 2212.72 1985.38
-10 2208.44 1964.2
-10 2204.8 1942.9
-10 2201.78 1921.5
-10 2304.92 2376.32
-10 2312.08 2343.74
-10 2320.16 2311.38
-10 2329.04 2279.22
-10 2338.84 2247.34
-10 2349.46 2215.72
-10 2360.86 2184.36
-10 2373.08 2153.32
-10 2386.06 2122.6
-10 2399.78 2092.2
-10 2414.2 2062.1
-10 2429.32 2032.38
-10 2445.16 2003.02
-10 2461.64 1974.01
-10 2478.74 1945.37
-10 2496.44 1917.1
-10 2514.74 1889.2
-10 2533.62 1861.7
-10 2553.06 1834.6
-10 2573.02 1807.88
-10 2593.46 1781.5
-10 2614.28 1755.45
-10 2635.5 1729.7
-10 1580.09 2531.94
-10 1573.58 2524.36
-10 1567.07 2516.76
-10 1560.56 2509.16
-10 1554.05 2501.58
-10 1547.54 2493.98
-10 1541.04 2486.4
-10 1534.53 2478.8
-10 1528.02 2471.2
-10 1521.51 2463.62
-10 1515 2456.02
-10 1508.49 2448.44
-10 1501.98 2440.84
-10 1495.47 2433.24
-10 1488.97 2425.66
-10 1482.46 2418.06
-10 1475.95 2410.48
-10 1469.44 2402.88
-10 1462.93 2395.28
-10 1456.42 2387.7
-10 1449.91 2380.1
-10 1443.4 2372.52
-10 1436.9 2364.92
-10 1575.37 2533.94
-10 1564.03 2528.6
-10 1552.56 2523.52
-10 1540.99 2518.7
-10 1529.28 2514.2
-10 1517.46 2510.04
-10 1505.52 2506.18
-10 1493.49 2502.64
-10 1481.38 2499.42
-10 1469.19 2496.48
-10 1456.93 2493.84
-10 1444.61 2491.48
-10 1432.24 2489.42
-10 1419.83 2487.64
-10 1407.38 2486.16
-10 1394.9 2484.94
-10 1382.39 2483.98
-10 1369.87 2483.32
-10 1357.34 2482.88
-10 1344.8 2482.7
-10 1332.26 2482.76
-10 1319.73 2483.04
-10 1307.2 2483.58
-10 2608.52 2568.72
-10 2625.52 2560.66
-10 2642.5 2552.6
-10 2659.5 2544.56
-10 2676.48 2536.5
-10 2693.48 2528.44
-10 2710.46 2520.4
-10 2727.46 2512.34
-10 2744.44 2504.28
-10 2761.44 2496.22
-10 2778.42 2488.18
-10 2795.42 2480.12
-10 2812.4 2472.06
-10 2829.4 2464
-10 2846.38 2455.96
-10 2863.36 2447.9
-10 2880.36 2439.84
-10 2897.34 2431.8
-10 2914.34 2423.74
-10 2931.32 2415.68
-10 2948.32 2407.62
-10 2965.3 2399.58
-10 2982.3 2391.52
-10 2607 2559.44
-10 2622.04 2541.74
-10 2636.7 2523.72
-10 2650.94 2505.36
-10 2664.74 2486.7
-10 2678.04 2467.64
-10 2690.8 2448.24
-10 2703.04 2428.5
-10 2714.78 2408.46
-10 2726.02 2388.14
-10 2736.74 2367.52
-10 2746.96 2346.68
-10 2756.68 2325.58
-10 2765.92 2304.26
-10 2774.66 2282.74
-10 2782.94 2261.06
-10 2790.8 2239.2
-10 2798.2 2217.18
-10 2805.14 2195.02
-10 2811.66 2172.72
-10 2817.72 2150.3
-10 2823.36 2127.76
-10 2828.58 2105.14
-10 1775.8 2056.74
-10 1780.64 2032.86
-10 1785.48 2008.98
-10 1790.32 1985.1
-10 1795.16 1961.22
-10 1800 1937.34
-10 1804.84 1913.46
-10 1809.68 1889.58
-10 1814.52 1865.7
-10 1819.37 1841.82
-10 1824.21 1817.94
-10 1829.05 1794.06
-10 1833.89 1770.19
-10 1838.73 1746.31
-10 1843.57 1722.43
-10 1848.41 1698.55
-10 1853.25 1674.67
-10 1858.09 1650.79
-10 1862.3 1626.79
-10 1865.9 1602.69
-10 1868.91 1578.52
-10 1871.37 1554.28
-10 1873.3 1529.99
-10 1766.23 2057.28
-10 1760.82 2034.12
-10 1754.72 2011.1
-10 1747.96 1988.29
-10 1740.53 1965.68
-10 1732.59 1943.25
-10 1724.11 1921.01
-10 1715.09 1898.99
-10 1705.51 1877.2
-10 1695.39 1855.66
-10 1684.79 1834.35
-10 1673.72 1813.29
-10 1662.16 1792.48
-10 1650.13 1771.95
-10 1637.67 1751.67
-10 1624.79 1731.66
-10 1611.48 1711.93
-10 1597.75 1692.5
-10 1583.64 1673.33
-10 1569.14 1654.46
-10 1554.31 1635.85
-10 1539.13 1617.52
-10 1523.61 1599.48
-10 2828.7 2090.4
-10 2828.82 2075.66
-10 2828.96 2060.92
-10 2829.08 2046.18
-10 2829.2 2031.44
-10 2829.32 2016.7
-10 2829.46 2001.96
-10 2829.58 1987.23
-10 2829.7 1972.49
-10 2829.84 1957.75
-10 2829.96 1943.01
-10 2830.08 1928.27
-10 2830.22 1913.53
-10 2830.34 1898.8
-10 2830.46 1884.06
-10 2830.6 1869.32
-10 2830.72 1854.58
-10 2831.22 1839.85
-10 2832.14 1825.14
-10 2833.44 1810.46
-10 2835.18 1795.82
-10 2837.36 1781.25
-10 2839.96 1766.74
-10 2835.84 2088.32
-10 2843.5 2071.7
-10 2851.54 2055.24
-10 2859.92 2038.96
-10 2868.8 2022.94
-10 2878.1 2007.16
-10 2887.84 1991.66
-10 2897.96 1976.4
-10 2908.48 1961.42
-10 2919.38 1946.69
-10 2930.62 1932.24
-10 2942.2 1918.06
-10 2954.12 1904.16
-10 2966.36 1890.54
-10 2978.9 1877.2
-10 2991.74 1864.14
-10 3004.86 1851.35
-10 3018.24 1838.85
-10 3031.88 1826.64
-10 3045.78 1814.73
-10 3059.96 1803.13
-10 3074.38 1791.84
-10 3089.02 1780.85
-10 1878.55 1510.18
-10 1883.79 1490.36
-10 1889.04 1470.55
-10 1894.28 1450.74
-10 1899.53 1430.93
-10 1904.78 1411.12
-10 1910.02 1391.3
-10 1915.26 1371.49
-10 1920.5 1351.68
-10 1925.76 1331.87
-10 1931 1312.05
-10 1936.24 1292.24
-10 1941.48 1272.43
-10 1946.72 1252.62
-10 1951.98 1232.81
-10 1957.22 1212.99
-10 1962.46 1193.18
-10 1967.7 1173.37
-10 1972.96 1153.56
-10 1978.2 1133.74
-10 1983.44 1113.93
-10 1988.68 1094.12
-10 1993.92 1074.31
-10 1870.74 1511.98
-10 1867.65 1494.05
-10 1864.01 1476.23
-10 1860.02 1458.48
-10 1855.6 1440.83
-10 1850.73 1423.31
-10 1845.38 1405.92
-10 1839.56 1388.68
-10 1833.34 1371.59
-10 1826.71 1354.65
-10 1819.65 1337.88
-10 1812.23 1321.27
-10 1804.44 1304.83
-10 1796.26 1288.58
-10 1787.75 1272.5
-10 1778.9 1256.61
-10 1769.71 1240.91
-10 1760.2 1225.4
-10 1750.38 1210.09
-10 1740.25 1194.98
-10 1729.82 1180.07
-10 1719.11 1165.37
-10 1708.14 1150.86
-10 1513.36 1581.9
-10 1503.11 1564.32
-10 1492.86 1546.74
-10 1482.61 1529.16
-10 1472.36 1511.58
-10 1462.11 1494
-10 1451.85 1476.42
-10 1441.6 1458.84
-10 1431.35 1441.26
-10 1421.1 1423.68
-10 1410.85 1406.1
-10 1400.6 1388.52
-10 1390.35 1370.94
-10 1380.1 1353.36
-10 1369.85 1335.78
-10 1359.6 1318.2
-10 1349.35 1300.62
-10 1339.1 1283.05
-10 1328.85 1265.47
-10 1318.6 1247.89
-10 1307.85 1230.61
-10 1296.62 1213.63
-10 1284.95 1196.97
-10 1515.61 1593.48
-10 1507.6 1587.49
-10 1499.43 1581.73
-10 1491.15 1576.11
-10 1482.72 1570.73
-10 1474.17 1565.55
-10 1465.47 1560.61
-10 1456.66 1555.89
-10 1447.71 1551.43
-10 1438.65 1547.19
-10 1429.51 1543.15
-10 1420.26 1539.35
-10 1410.93 1535.75
-10 1401.52 1532.34
-10 1392.05 1529.16
-10 1382.5 1526.17
-10 1372.89 1523.4
-10 1363.23 1520.84
-10 1353.51 1518.47
-10 1343.75 1516.32
-10 1333.94 1514.35
-10 1324.1 1512.57
-10 1314.23 1510.99
-10 1283.37 2480.24
-10 1259.54 2476.88
-10 1235.71 2473.54
-10 1211.88 2470.18
-10 1188.05 2466.82
-10 1164.22 2463.48
-10 1140.39 2460.12
-10 1116.56 2456.78
-10 1092.73 2453.42
-10 1068.9 2450.08
-10 1045.07 2446.72
-10 1021.24 2443.36
-10 997.412 2440.02
-10 973.582 2436.66
-10 949.754 2433.32
-10 925.924 2429.96
-10 902.094 2426.6
-10 878.264 2423.26
-10 854.434 2419.9
-10 830.604 2416.56
-10 806.774 2413.2
-10 782.946 2409.86
-10 759.116 2406.5
-10 1270.91 2493.24
[...]
CELL_DATA 3818
SCALARS radius float
LOOKUP_TABLE default
2.69918e-311
2.69918e-311
2.69918e-311
2.69918e-311
2.69918e-311
2.69918e-311
2.69918e-311
2.69918e-311
2.69918e-311
2.69918e-311
2.69918e-311
2.69918e-311
2.69918e-311
2.69918e-311
2.69918e-311
2.69918e-311
2.69918e-311
2.69918e-311
2.69918e-311
2.69918e-311
2.69918e-311
2.69918e-311
2.69918e-311
2.69918e-311
2.69918e-311
2.69918e-311
2.69918e-311
2.69918e-311
2.69918e-311
2.69918e-311
2.69918e-311
2.69918e-311
2.69918e-311
2.69918e-311
2.69918e-311
2.69918e-311
2.69918e-311
2.69918e-311
2.69918e-311
2.69918e-311
2.69918e-311
2.69918e-311
2.69918e-311
2.69918e-311
2.69918e-311
2.69918e-311
2.69918e-311
2.69918e-311
2.69918e-311
2.69918e-311
2.69918e-311
2.69918e-311
2.69918e-311
2.69918e-311
2.69918e-311
2.69918e-311
2.69918e-311
2.69918e-311
2.69918e-311
2.69918e-311
2.69918e-311
2.69918e-311
2.69918e-311
2.69918e-311
2.69918e-311
2.69918e-311
2.69918e-311
2.69918e-311
2.69918e-311
2.69918e-311
2.69918e-311
2.69918e-311
2.69918e-311
2.69918e-311
2.69918e-311
2.69918e-311
2.69918e-311
2.69918e-311
2.69918e-311
2.69918e-311
2.69918e-311
2.69918e-311
2.69918e-311
2.69918e-311
2.69918e-311
2.69918e-311
2.69918e-311
2.69918e-311
2.69918e-311
2.69918e-311
2.69918e-311
2.69918e-311
2.69918e-311
2.69918e-311
2.69918e-311
2.69918e-311
2.69918e-311
2.69918e-311
2.69918e-311
2.69918e-311
2.69918e-311
2.69918e-311
2.69918e-311
2.69918e-311
2.69918e-311
2.69918e-311
2.69918e-311
2.69918e-311
2.69918e-311
2.69918e-311
2.69918e-311
2.69918e-311
2.69918e-311
2.69918e-311
2.69918e-311
2.69918e-311
2.69918e-311
2.69918e-311
2.69918e-311
2.69918e-311
2.69918e-311
2.69918e-311
2.69918e-311
2.69918e-311
2.69918e-311
2.69918e-311
2.69918e-311
2.69918e-311
2.69918e-311
2.69918e-311
2.69918e-311
2.69918e-311
2.69918e-311
2.69918e-311
2.69918e-311
2.69918e-311
2.69918e-311
2.69918e-311
2.69918e-311
2.69918e-311
2.69918e-311
2.69918e-311
2.69918e-311
2.69918e-311
2.69918e-311
2.69918e-311
2.69918e-311
2.69918e-311
2.69918e-311
2.69918e-311
2.69918e-311
2.69918e-311
2.69918e-311
2.69918e-311
2.69918e-311
2.69918e-311
2.69918e-311
2.69918e-311
2.69918e-311
2.69918e-311
2.69918e-311
2.69918e-311
2.69918e-311
2.69918e-311
2.69918e-311
2.69918e-311
2.69918e-311
2.69918e-311
2.69918e-311
2.69918e-311
2.69918e-311
2.69918e-311
2.69918e-311
2.69918e-311
2.69918e-311
2.69918e-311
2.69918e-311
2.69918e-311
2.69918e-311
2.69918e-311
2.69918e-311
2.69918e-311
2.69918e-311
2.69918e-311
2.69918e-311
2.69918e-311
2.69918e-311
2.69918e-311
2.69918e-311
2.69918e-311
2.69918e-311
2.69918e-311
2.69918e-311
2.69918e-311
2.69918e-311
2.69918e-311
2.69918e-311
2.69918e-311
2.69918e-311
2.69918e-311
2.69918e-311
2.69918e-311
2.69918e-311
2.69918e-311
2.69918e-311
2.69918e-311
2.69918e-311
2.69918e-311
2.69918e-311
2.69918e-311
2.69918e-311
2.69918e-311
2.69918e-311
2.69918e-311
2.69918e-311
2.69918e-311
2.69918e-311
2.69918e-311
2.69918e-311
2.69918e-311
2.69918e-311
2.69918e-311
2.69918e-311
2.69918e-311
2.69918e-311
2.69918e-311
2.69918e-311
2.69918e-311
2.69918e-311
2.69918e-311
2.69918e-311
2.69918e-311
2.69918e-311
2.69918e-311
2.69918e-311
2.69918e-311
2.69918e-311
2.69918e-311
2.69918e-311
2.69918e-311
2.69918e-311
2.69918e-311
2.69918e-311
2.69918e-311
2.69918e-311
2.69918e-311
2.69918e-311
2.69918e-311
2.69918e-311
2.69918e-311
2.69918e-311
2.69918e-311
2.69918e-311
2.69918e-311
2.69918e-311
2.69918e-311
2.69918e-311
2.69918e-311
2.69918e-311
2.69918e-311
2.69918e-311
2.69918e-311
2.69918e-311
2.69918e-311
2.69918e-311
2.69918e-311
2.69918e-311
2.69918e-311
2.69918e-311
2.69918e-311
2.69918e-311
2.69918e-311
2.69918e-311
2.69918e-311
2.69918e-311
2.69918e-311
2.69918e-311
2.69918e-311
2.69918e-311
2.69918e-311
2.69918e-311
2.69918e-311
2.69918e-311
2.69918e-311
2.69918e-311
2.69918e-311
2.69918e-311
2.69918e-311
2.69918e-311
2.69918e-311
2.69918e-311
2.69918e-311
2.69918e-311
2.69918e-311
2.69918e-311
2.69918e-311
2.69918e-311
2.69918e-311
2.69918e-311
2.69918e-311
2.69918e-311
2.69918e-311
2.69918e-311
2.69918e-311
2.69918e-311
2.69918e-311
2.69918e-311
2.69918e-311
2.69918e-311
2.69918e-311
2.69918e-311
2.69918e-311
2.69918e-311
2.69918e-311
2.69918e-311
2.69918e-311
2.69918e-311
2.69918e-311
2.69918e-311
2.69918e-311
2.69918e-311
2.69918e-311
2.69918e-311
2.69918e-311
2.69918e-311
2.69918e-311
2.69918e-311
2.69918e-311
2.69918e-311
2.69918e-311
2.69918e-311
2.69918e-311
2.69918e-311
2.69918e-311
2.69918e-311
2.69918e-311
2.69918e-311
2.69918e-311
2.69918e-311
2.69918e-311
2.69918e-311
2.69918e-311
2.69918e-311
2.69918e-311
2.69918e-311
2.69918e-311
2.69918e-311
2.69918e-311
2.69918e-311
2.69918e-311
2.69918e-311
2.69918e-311
2.69918e-311
2.69918e-311
2.69918e-311
2.69918e-311
2.69918e-311
2.69918e-311
2.69918e-311
2.69918e-311
2.69918e-311
2.69918e-311
2.69918e-311
2.69918e-311
2.69918e-311
2.69918e-311
2.69918e-311
2.69918e-311
2.69918e-311
2.69918e-311
2.69918e-311
2.69918e-311
2.69918e-311
2.69918e-311
2.69918e-311
2.69918e-311
2.69918e-311
2.69918e-311
2.69918e-311
2.69918e-311
2.69918e-311
2.69918e-311
2.69918e-311
2.69918e-311
2.69918e-311
2.69918e-311
2.69918e-311
2.69918e-311
2.69918e-311
2.69918e-311
2.69918e-311
2.69918e-311
2.69918e-311
2.69918e-311
2.69918e-311
2.69918e-311
2.69918e-311
2.69918e-311
2.69918e-311
2.69918e-311
2.69918e-311
2.69918e-311
2.69918e-311
2.69918e-311
2.69918e-311
2.69918e-311
2.69918e-311
2.69918e-311
2.69918e-311
2.69918e-311
2.69918e-311
2.69918e-311
2.69918e-311
2.69918e-311
2.69918e-311
2.69918e-311
2.69918e-311
2.69918e-311
2.69918e-311
2.69918e-311
2.69918e-311
2.69918e-311
2.69918e-311
2.69918e-311
2.69918e-311
2.69918e-311
2.69918e-311
2.69918e-311
2.69918e-311
2.69918e-311
2.69918e-311
2.69918e-311
2.69918e-311
2.69918e-311
2.69918e-311
2.69918e-311
2.69918e-311
2.69918e-311
2.69918e-311
2.69918e-311
2.69918e-311
2.69918e-311
2.69918e-311
2.69918e-311
2.69918e-311
2.69918e-311
2.69918e-311
2.69918e-311
2.69918e-311
2.69918e-311
2.69918e-311
2.69918e-311
2.69918e-311
2.69918e-311
2.69918e-311
2.69918e-311
2.69918e-311
2.69918e-311
2.69918e-311
2.69918e-311
2.69918e-311
2.69918e-311
2.69918e-311
2.69918e-311
2.69918e-311
2.69918e-311
2.69918e-311
2.69918e-311
2.69918e-311
2.69918e-311
2.69918e-311
2.69918e-311
2.69918e-311
2.69918e-311
2.69918e-311
2.69918e-311
2.69918e-311
2.69918e-311
2.69918e-311
2.69918e-311
2.69918e-311
2.69918e-311
2.69918e-311
2.69918e-311
2.69918e-311
2.69918e-311
2.69918e-311
2.69918e-311
2.69918e-311
2.69918e-311
2.69918e-311
2.69918e-311
2.69918e-311
2.69918e-311
2.69918e-311
2.69918e-311
2.69918e-311
2.69918e-311
2.69918e-311
2.69918e-311
2.69918e-311
2.69918e-311
2.69918e-311
2.69918e-311
2.69918e-311
2.69918e-311
2.69918e-311
2.69918e-311
2.69918e-311
2.69918e-311
2.69918e-311
2.69918e-311
2.69918e-311
2.69918e-311
2.69918e-311
2.69918e-311
2.69918e-311
2.69918e-311
2.69918e-311
2.69918e-311
2.69918e-311
2.69918e-311
2.69918e-311
2.69918e-311
2.69918e-311
2.69918e-311
2.69918e-311
2.69918e-311
2.69918e-311
2.69918e-311
2.69918e-311
2.69918e-311
2.69918e-311
2.69918e-311
2.69918e-311
2.69918e-311
2.69918e-311
2.69918e-311
2.69918e-311
2.69918e-311
2.69918e-311
2.69918e-311
2.69918e-311
2.69918e-311
2.69918e-311
2.69918e-311
2.69918e-311
2.69918e-311
2.69918e-311
2.69918e-311
2.69918e-311
2.69918e-311
2.69918e-311
2.69918e-311
2.69918e-311
2.69918e-311
2.69918e-311
2.69918e-311
2.69918e-311
2.69918e-311
2.69918e-311
2.69918e-311
2.69918e-311
2.69918e-311
2.69918e-311
2.69918e-311
2.69918e-311
2.69918e-311
2.69918e-311
2.69918e-311
2.69918e-311
2.69918e-311
2.69918e-311
2.69918e-311
2.69918e-311
2.69918e-311
2.69918e-311
2.69918e-311
2.69918e-311
2.69918e-311
2.69918e-311
2.69918e-311
2.69918e-311
2.69918e-311
2.69918e-311
2.69918e-311
2.69918e-311
2.69918e-311
2.69918e-311
2.69918e-311
2.69918e-311
2.69918e-311
2.69918e-311
2.69918e-311
2.69918e-311
2.69918e-311
2.69918e-311
2.69918e-311
2.69918e-311
2.69918e-311
2.69918e-311
2.69918e-311
2.69918e-311
2.69918e-311
2.69918e-311
2.69918e-311
2.69918e-311
2.69918e-311
2.69918e-311
2.69918e-311
2.69918e-311
2.69918e-311
2.69918e-311
2.69918e-311
2.69918e-311
2.69918e-311
2.69918e-311
2.69918e-311
2.69918e-311
2.69918e-311
2.69918e-311
2.69918e-311
2.69918e-311
2.69918e-311
2.69918e-311
2.69918e-311
2.69918e-311
2.69918e-311
2.69918e-311
2.69918e-311
2.69918e-311
2.69918e-311
2.69918e-311
2.69918e-311
2.69918e-311
2.69918e-311
2.69918e-311
2.69918e-311
2.69918e-311
2.69918e-311
2.69918e-311
2.69918e-311
2.69918e-311
2.69918e-311
2.69918e-311
2.69918e-311
2.69918e-311
2.69918e-311
2.69918e-311
2.69918e-311
2.69918e-311
2.69918e-311
2.69918e-311
2.69918e-311
2.69918e-311
2.69918e-311
2.69918e-311
2.69918e-311
2.69918e-311
2.69918e-311
2.69918e-311
2.69918e-311
2.69918e-311
2.69918e-311
2.69918e-311
2.69918e-311
2.69918e-311
2.69918e-311
2.69918e-311
2.69918e-311
2.69918e-311
2.69918e-311
2.69918e-311
2.69918e-311
2.69918e-311
2.69918e-311
2.69918e-311
2.69918e-311
2.69918e-311
2.69918e-311
2.69918e-311
2.69918e-311
2.69918e-311
2.69918e-311
2.69918e-311
2.69918e-311
2.69918e-311
2.69918e-311
2.69918e-311
2.69918e-311
2.69918e-311
2.69918e-311
2.69918e-311
2.69918e-311
2.69918e-311
2.69918e-311
2.69918e-311
2.69918e-311
2.69918e-311
2.69918e-311
2.69918e-311
2.69918e-311
2.69918e-311
2.69918e-311
2.69918e-311
2.69918e-311
2.69918e-311
2.69918e-311
2.69918e-311
2.69918e-311
2.69918e-311
2.69918e-311
2.69918e-311
2.69918e-311
2.69918e-311
2.69918e-311
2.69918e-311
2.69918e-311
2.69918e-311
2.69918e-311
2.69918e-311
2.69918e-311
2.69918e-311
2.69918e-311
2.69918e-311
2.69918e-311
2.69918e-311
2.69918e-311
2.69918e-311
2.69918e-311
2.69918e-311
2.69918e-311
2.69918e-311
2.69918e-311
2.69918e-311
2.69918e-311
2.69918e-311
2.69918e-311
2.69918e-311
2.69918e-311
2.69918e-311
2.69918e-311
2.69918e-311
2.69918e-311
2.69918e-311
2.69918e-311
2.69918e-311
2.69918e-311
2.69918e-311
2.69918e-311
2.69918e-311
2.69918e-311
2.69918e-311
2.69918e-311
2.69918e-311
2.69918e-311
2.69918e-311
2.69918e-311
2.69918e-311
2.69918e-311
2.69918e-311
2.69918e-311
2.69918e-311
2.69918e-311
2.69918e-311
2.69918e-311
2.69918e-311
2.69918e-311
2.69918e-311
2.69918e-311
2.69918e-311
2.69918e-311
2.69918e-311
2.69918e-311
2.69918e-311
2.69918e-311
2.69918e-311
2.69918e-311
2.69918e-311
2.69918e-311
2.69918e-311
2.69918e-311
2.69918e-311
2.69918e-311
2.69918e-311
2.69918e-311
2.69918e-311
2.69918e-311
2.69918e-311
2.69918e-311
2.69918e-311
2.69918e-311
2.69918e-311
2.69918e-311
2.69918e-311
2.69918e-311
2.69918e-311
2.69918e-311
2.69918e-311
2.69918e-311
2.69918e-311
2.69918e-311
2.69918e-311
2.69918e-311
2.69918e-311
2.69918e-311
2.69918e-311
2.69918e-311
2.69918e-311
2.69918e-311
2.69918e-311
2.69918e-311
2.69918e-311
2.69918e-311
2.69918e-311
2.69918e-311
2.69918e-311
2.69918e-311
2.69918e-311
2.69918e-311
2.69918e-311
2.69918e-311
2.69918e-311
2.69918e-311
2.69918e-311
2.69918e-311
2.69918e-311
2.69918e-311
2.69918e-311
2.69918e-311
2.69918e-311
2.69918e-311
2.69918e-311
2.69918e-311
2.69918e-311
2.69918e-311
2.69918e-311
2.69918e-311
2.69918e-311
2.69918e-311
2.69918e-311
2.69918e-311
2.69918e-311
2.69918e-311
2.69918e-311
2.69918e-311
2.69918e-311
2.69918e-311
2.69918e-311
2.69918e-311
2.69918e-311
2.69918e-311
2.69918e-311
2.69918e-311
2.69918e-311
2.69918e-311
2.69918e-311
2.69918e-311
2.69918e-311
2.69918e-311
2.69918e-311
2.69918e-311
2.69918e-311
2.69918e-311
2.69918e-311
2.69918e-311
2.69918e-311
2.69918e-311
2.69918e-311
2.69918e-311
2.69918e-311
2.69918e-311
2.69918e-311
2.69918e-311
2.69918e-311
2.69918e-311
2.69918e-311
2.69918e-311
2.69918e-311
2.69918e-311
2.69918e-311
2.69918e-311
2.69918e-311
2.69918e-311
2.69918e-311
2.69918e-311
2.69918e-311
2.69918e-311
2.69918e-311
2.69918e-311
2.69918e-311
2.69918e-311
2.69918e-311
2.69918e-311
2.69918e-311
2.69918e-311
2.69918e-311
2.69918e-311
2.69918e-311
2.69918e-311
2.69918e-311
2.69918e-311
2.69918e-311
2.69918e-311
2.69918e-311
2.69918e-311
2.69918e-311
2.69918e-311
2.69918e-311
2.69918e-311
2.69918e-311
2.69918e-311
2.69918e-311
2.69918e-311
2.69918e-311
2.69918e-311
2.69918e-311
2.69918e-311
2.69918e-311
2.69918e-311
2.69918e-311
2.69918e-311
2.69918e-311
2.69918e-311
2.69918e-311
2.69918e-311
2.69918e-311
2.69918e-311
2.69918e-311
2.69918e-311
2.69918e-311
2.69918e-311
2.69918e-311
2.69918e-311
2.69918e-311
2.69918e-311
2.69918e-311
2.69918e-311
2.69918e-311
2.69918e-311
2.69918e-311
2.69918e-311
2.69918e-311
2.69918e-311
2.69918e-311
2.69918e-311
2.69918e-311
2.69918e-311
2.69918e-311
2.69918e-311
2.69918e-311
2.69918e-311
2.69918e-311
2.69918e-311
2.69918e-311
2.69918e-311
2.69918e-311
2.69918e-311
2.69918e-311
2.69918e-311
2.69918e-311
2.69918e-311
2.69918e-311
2.69918e-311
2.69918e-311
2.69918e-311
2.69918e-311
2.69918e-311
2.69918e-311
2.69918e-311
2.69918e-311
2.69918e-311
2.69918e-311
2.69918e-311
2.69918e-311
2.69918e-311
2.69918e-311
2.69918e-311
2.69918e-311
2.69918e-311
2.69918e-311
2.69918e-311
2.69918e-311
2.69918e-311
2.69918e-311
2.69918e-311
2.69918e-311
2.69918e-311
2.69918e-311
2.69918e-311
2.69918e-311
2.69918e-311
2.69918e-311
2.69918e-311
2.69918e-311
2.69918e-311
2.69918e-311
2.69918e-311
2.69918e-311
2.69918e-311
2.69918e-311
2.69918e-311
2.69918e-311
2.69918e-311
2.69918e-311
2.69918e-311
2.69918e-311
2.69918e-311
2.69918e-311
2.69918e-311
2.69918e-311
2.69918e-311
2.69918e-311
2.69918e-311
2.69918e-311
2.69918e-311
2.69918e-311
2.69918e-311
2.69918e-311
2.69918e-311
2.69918e-311
2.69918e-311
2.69918e-311
2.69918e-311
2.69918e-311
2.69918e-311
2.69918e-311
2.69918e-311
2.69918e-311
2.69918e-311
2.69918e-311
2.69918e-311
2.69918e-311
2.69918e-311
2.69918e-311
2.69918e-311
2.69918e-311
2.69918e-311
2.69918e-311
2.69918e-311
2.69918e-311
2.69918e-311
2.69918e-311
2.69918e-311
2.69918e-311
2.69918e-311
2.69918e-311
2.69918e-311
2.69918e-311
2.69918e-311
2.69918e-311
2.69918e-311
2.69918e-311
2.69918e-311
2.69918e-311
2.69918e-311
2.69918e-311
2.69918e-311
2.69918e-311
2.69918e-311
2.69918e-311
2.69918e-311
2.69918e-311
2.69918e-311
2.69918e-311
2.69918e-311
2.69918e-311
2.69918e-311
2.69918e-311
2.69918e-311
2.69918e-311
2.69918e-311
2.69918e-311
2.69918e-311
2.69918e-311
2.69918e-311
2.69918e-311
2.69918e-311
2.69918e-311
2.69918e-311
2.69918e-311
2.69918e-311
2.69918e-311
2.69918e-311
2.69918e-311
2.69918e-311
2.69918e-311
2.69918e-311
2.69918e-311
2.69918e-311
2.69918e-311
2.69918e-311
2.69918e-311
2.69918e-311
2.69918e-311
2.69918e-311
2.69918e-311
2.69918e-311
2.69918e-311
2.69918e-311
2.69918e-311
2.69918e-311
2.69918e-311
2.69918e-311
2.69918e-311
2.69918e-311
2.69918e-311
2.69918e-311
2.69918e-311
2.69918e-311
2.69918e-311
2.69918e-311
2.69918e-311
2.69918e-311
2.69918e-311
2.69918e-311
2.69918e-311
2.69918e-311
2.69918e-311
2.69918e-311
2.69918e-311
2.69918e-311
2.69918e-311
2.69918e-311
2.69918e-311
2.69918e-311
2.69918e-311
2.69918e-311
2.69918e-311
2.69918e-311
2.69918e-311
2.69918e-311
2.69918e-311
2.69918e-311
2.69918e-311
2.69918e-311
2.69918e-311
2.69918e-311
2.69918e-311
2.69918e-311
2.69918e-311
2.69918e-311
2.69918e-311
2.69918e-311
2.69918e-311
2.69918e-311
2.69918e-311
2.69918e-311
2.69918e-311
2.69918e-311
2.69918e-311
2.69918e-311
2.69918e-311
2.69918e-311
2.69918e-311
2.69918e-311
2.69918e-311
2.69918e-311
2.69918e-311
2.69918e-311
2.69918e-311
2.69918e-311
2.69918e-311
2.69918e-311
2.69918e-311
2.69918e-311
2.69918e-311
2.69918e-311
2.69918e-311
2.69918e-311
2.69918e-311
2.69918e-311
2.69918e-311
2.69918e-311
2.69918e-311
2.69918e-311
2.69918e-311
2.69918e-311
2.69918e-311
2.69918e-311
2.69918e-311
2.69918e-311
2.69918e-311
2.69918e-311
2.69918e-311
2.69918e-311
2.69918e-311
2.69918e-311
2.69918e-311
2.69918e-311
2.69918e-311
2.69918e-311
2.69918e-311
2.69918e-311
2.69918e-311
2.69918e-311
2.69918e-311
2.69918e-311
2.69918e-311
2.69918e-311
2.69918e-311
2.69918e-311
2.69918e-311
2.69918e-311
2.69918e-311
2.69918e-311
2.69918e-311
2.69918e-311
2.69918e-311
2.69918e-311
2.69918e-311
2.69918e-311
2.69918e-311
2.69918e-311
2.69918e-311
2.69918e-311
2.69918e-311
2.69918e-311
2.69918e-311
2.69918e-311
2.69918e-311
2.69918e-311
2.69918e-311
2.69918e-311
2.69918e-311
2.69918e-311
2.69918e-311
2.69918e-311
2.69918e-311
2.69918e-311
2.69918e-311
2.69918e-311
2.69918e-311
2.69918e-311
2.69918e-311
2.69918e-311
2.69918e-311
2.69918e-311
2.69918e-311
2.69918e-311
2.69918e-311
2.69918e-311
2.69918e-311
2.69918e-311
2.69918e-311
2.69918e-311
2.69918e-311
2.69918e-311
2.69918e-311
2.69918e-311
2.69918e-311
2.69918e-311
2.69918e-311
2.69918e-311
2.69918e-311
2.69918e-311
2.69918e-311
2.69918e-311
2.69918e-311
2.69918e-311
2.69918e-311
2.69918e-311
2.69918e-311
2.69918e-311
2.69918e-311
2.69918e-311
2.69918e-311
2.69918e-311
2.69918e-311
2.69918e-311
2.69918e-311
2.69918e-311
2.69918e-311
2.69918e-311
2.69918e-311
2.69918e-311
2.69918e-311
2.69918e-311
2.69918e-311
2.69918e-311
2.69918e-311
2.69918e-311
2.69918e-311
2.69918e-311
2.69918e-311
2.69918e-311
2.69918e-311
2.69918e-311
2.69918e-311
2.69918e-311
2.69918e-311
2.69918e-311
2.69918e-311
2.69918e-311
2.69918e-311
2.69918e-311
2.69918e-311
2.69918e-311
2.69918e-311
2.69918e-311
2.69918e-311
2.69918e-311
2.69918e-311
2.69918e-311
2.69918e-311
2.69918e-311
2.69918e-311
2.69918e-311
2.69918e-311
2.69918e-311
2.69918e-311
2.69918e-311
2.69918e-311
2.69918e-311
2.69918e-311
2.69918e-311
2.69918e-311
2.69918e-311
2.69918e-311
2.69918e-311
2.69918e-311
2.69918e-311
2.69918e-311
2.69918e-311
2.69918e-311
2.69918e-311
2.69918e-311
2.69918e-311
2.69918e-311
2.69918e-311
2.69918e-311
2.69918e-311
2.69918e-311
2.69918e-311
2.69918e-311
2.69918e-311
2.69918e-311
2.69918e-311
2.69918e-311
2.69918e-311
2.69918e-311
2.69918e-311
2.69918e-311
2.69918e-311
2.69918e-311
2.69918e-311
2.69918e-311
2.69918e-311
2.69918e-311
2.69918e-311
2.69918e-311
2.69918e-311
2.69918e-311
2.69918e-311
2.69918e-311
2.69918e-311
2.69918e-311
2.69918e-311
2.69918e-311
2.69918e-311
2.69918e-311
2.69918e-311
2.69918e-311
2.69918e-311
2.69918e-311
2.69918e-311
2.69918e-311
2.69918e-311
2.69918e-311
2.69918e-311
2.69918e-311
2.69918e-311
2.69918e-311
2.69918e-311
2.69918e-311
2.69918e-311
2.69918e-311
2.69918e-311
2.69918e-311
2.69918e-311
2.69918e-311
2.69918e-311
2.69918e-311
2.69918e-311
2.69918e-311
2.69918e-311
2.69918e-311
2.69918e-311
2.69918e-311
2.69918e-311
2.69918e-311
2.69918e-311
2.69918e-311
2.69918e-311
2.69918e-311
2.69918e-311
2.69918e-311
2.69918e-311
2.69918e-311
2.69918e-311
2.69918e-311
2.69918e-311
2.69918e-311
2.69918e-311
2.69918e-311
2.69918e-311
2.69918e-311
2.69918e-311
2.69918e-311
2.69918e-311
2.69918e-311
2.69918e-311
2.69918e-311
2.69918e-311
2.69918e-311
2.69918e-311
2.69918e-311
2.69918e-311
2.69918e-311
2.69918e-311
2.69918e-311
2.69918e-311
2.69918e-311
2.69918e-311
2.69918e-311
2.69918e-311
2.69918e-311
2.69918e-311
2.69918e-311
2.69918e-311
2.69918e-311
2.69918e-311
2.69918e-311
2.69918e-311
2.69918e-311
2.69918e-311
2.69918e-311
2.69918e-311
2.69918e-311
2.69918e-311
2.69918e-311
2.69918e-311
2.69918e-311
2.69918e-311
2.69918e-311
2.69918e-311
2.69918e-311
2.69918e-311
2.69918e-311
2.69918e-311
2.69918e-311
2.69918e-311
2.69918e-311
2.69918e-311
2.69918e-311
2.69918e-311
2.69918e-311
2.69918e-311
2.69918e-311
2.69918e-311
2.69918e-311
2.69918e-311
2.69918e-311
2.69918e-311
2.69918e-311
2.69918e-311
2.69918e-311
2.69918e-311
2.69918e-311
2.69918e-311
2.69918e-311
2.69918e-311
2.69918e-311
2.69918e-311
2.69918e-311
2.69918e-311
2.69918e-311
2.69918e-311
2.69918e-311
2.69918e-311
2.69918e-311
2.69918e-311
2.69918e-311
2.69918e-311
2.69918e-311
2.69918e-311
2.69918e-311
2.69918e-311
2.69918e-311
2.69918e-311
2.69918e-311
2.69918e-311
2.69918e-311
2.69918e-311
2.69918e-311
2.69918e-311
2.69918e-311
2.69918e-311
2.69918e-311
2.69918e-311
2.69918e-311
2.69918e-311
2.69918e-311
2.69918e-311
2.69918e-311
2.69918e-311
2.69918e-311
2.69918e-311
2.69918e-311
2.69918e-311
2.69918e-311
2.69918e-311
2.69918e-311
2.69918e-311
2.69918e-311
2.69918e-311
2.69918e-311
2.69918e-311
2.69918e-311
2.69918e-311
2.69918e-311
2.69918e-311
2.69918e-311
2.69918e-311
2.69918e-311
2.69918e-311
2.69918e-311
2.69918e-311
2.69918e-311
2.69918e-311
2.69918e-311
2.69918e-311
2.69918e-311
2.69918e-311