# vtk DataFile Version 4.2
vtk output
ASCII
DATASET POLYDATA
POINTS 2 float
10000 15000 0
10000 5000 0
VERTICES 2 4
1 0
1 1
POINT_DATA 2
FIELD FieldData 2
Rpmj 1 2 float
1000
20000
METADATA
INFORMATION 0

Nmin_pmj 1 2 float
10
10
METADATA
INFORMATION 0

