# vtk DataFile Version 3.0
Lsystem
ASCII
DATASET POLYDATA
POINTS 21 float
10000 20000 0
10000 19800 0
9871.66 19455.5 0
10211.1 18715 0
11539.4 17552.3 0
9228.41 16393.5 0
13146.1 17173.5 0
11474.4 16258.9 0
10409 14551.7 0
13834.9 15376.1 0
14613.5 16552.3 0
11692 13557.6 0
15297.4 13981.5 0
16736.6 16362.6 0
13478.7 12752.8 0
11533.8 11864.2 0
17460.4 13288.3 0
17981.7 15340.3 0
18782.6 15992.9 0
14006 11356.6 0
12751 10485.7 0
LINES 20 60
2 0 1
2 1 2
2 2 3
2 3 4
2 3 5
2 4 6
2 4 7
2 5 8
2 6 9
2 6 10
2 8 11
2 9 12
2 10 13
2 11 14
2 11 15
2 12 16
2 13 17
2 13 18
2 14 19
2 15 20
POINT_DATA 21
SCALARS terminal float 1
LOOKUP_TABLE default
0
0
0
0
0
0
0
0
0
0
0
0
0
0
0
0
0
0
0
0
0
