# vtk DataFile Version 3.0
Lsystem
ASCII
DATASET POLYDATA
POINTS 83 float
10000 20000 0
10000 19800 0
9871.66 19455.5 0
10211.1 18715 0
11539.4 17552.3 0
10258.6 16782.2 0
13146.1 17173.5 0
11466.4 15111.6 0
9518.95 15145.6 0
14613.5 16552.3 0
12714.2 14345.9 0
10250.7 13354.5 0
8279.67 13919.7 0
16736.6 16362.6 0
15113.9 15067.6 0
13974.3 13638.4 0
13478.7 12752.8 0
11533.8 11864.2 0
8249.65 12239.6 0
6873.28 12838.4 0
18782.6 15992.9 0
16037.9 13556.2 0
14976.7 11532 0
12751 10485.7 0
11572.7 10598 0
9113.81 10646.8 0
7107.37 11172.9 0
5255.69 12087.6 0
19588.7 14876.2 0
19593.3 15740.1 0
18169.7 12441.9 0
16402.9 10148.2 0
14758.8 9257.04 0
12821.6 8639.07 0
10743.6 9064.55 0
8179.56 9198.73 0
6608.72 9698.39 0
4114.28 10452.6 0
3794.26 11193.4 0
19386.2 13992.1 0
19964.3 11602.9 0
19016 10974.2 0
18031 8643.98 0
16708.2 8760.9 0
15974.1 7793.33 0
13688.9 7663.77 0
11900.9 7238.34 0
8647.28 7741.34 0
5342.69 8694.8 0
4559.69 8523.91 0
2252.96 9796.2 0
2037.21 10661.2 0
19862.2 9476.82 0
19865.4 7552.86 0
17804.7 6977.86 0
15720 6149.16 0
13331.1 5775.56 0
11689.8 4888.25 0
9638.72 6099.11 0
8118.35 6537.36 0
3623.22 6827.09 0
1302.58 7721.19 0
101.524 9745.08 0
19384.2 5927.43 0
19132.2 5088.65 0
16664.9 4677.83 0
14106 4651.3 0
12758.1 3640.06 0
8835.71 4408.58 0
7271.97 5765.39 0
3750.66 5524.69 0
1731.92 5844.15 0
19978.5 4365.14 0
19507.6 3078.46 0
16181.9 2634.04 0
14551 2781.16 0
12909.1 2175.7 0
10519.9 1721.12 0
6942.32 3692.45 0
5883.21 4645.23 0
4452.05 4395.76 0
2533.38 4551.04 0
545.82 4074.99 0
LINES 82 246
2 0 1
2 1 2
2 2 3
2 3 4
2 3 5
2 4 6
2 5 7
2 5 8
2 6 9
2 7 10
2 8 11
2 8 12
2 9 13
2 9 14
2 10 15
2 10 16
2 11 17
2 12 18
2 12 19
2 13 20
2 14 21
2 16 22
2 17 23
2 17 24
2 18 25
2 18 26
2 19 27
2 20 28
2 20 29
2 21 30
2 22 31
2 22 32
2 23 33
2 24 34
2 25 35
2 26 36
2 27 37
2 27 38
2 28 39
2 30 40
2 30 41
2 31 42
2 31 43
2 32 44
2 33 45
2 34 46
2 35 47
2 36 48
2 37 49
2 37 50
2 38 51
2 40 52
2 42 53
2 42 54
2 44 55
2 45 56
2 46 57
2 47 58
2 47 59
2 49 60
2 50 61
2 50 62
2 53 63
2 54 64
2 55 65
2 56 66
2 57 67
2 58 68
2 59 69
2 60 70
2 61 71
2 64 72
2 64 73
2 65 74
2 67 75
2 67 76
2 68 77
2 68 78
2 69 79
2 70 80
2 70 81
2 71 82
POINT_DATA 83
SCALARS terminal float 1
LOOKUP_TABLE default
0
0
0
0
0
0
0
0
0
0
0
0
0
0
0
0
0
0
0
0
0
0
0
0
0
0
0
0
0
0
0
0
0
0
0
0
0
0
0
0
0
0
0
0
0
0
0
0
0
0
0
0
0
0
0
0
0
0
0
0
0
0
0
0
0
0
0
0
0
0
0
0
0
0
0
0
0
1
0
0
0
0
0
