# vtk DataFile Version 3.0
Tree
ASCII
DATASET POLYDATA
POINTS 200 float
10000 20000 0
5004.21 5124.56 0
7760.39 13012.8 0
6898.86 11969.6 0
8415.34 14000.5 0
8795.52 12964 0
8385.61 13628.4 0
7886.54 13176.6 0
9366.13 16400.2 0
1928.08 15752.8 0
6415.93 11071.2 0
3794.26 11193.4 0
6475.15 15376.7 0
5857.71 14165.2 0
9175.97 15920.2 0
13478.7 12752.8 0
13034.3 13364.6 0
19862.2 9476.82 0
3395.57 16436 0
171.372 19920.8 0
4677.22 7293.32 0
545.82 4074.99 0
16308 10032.3 0
17804.7 6977.86 0
15614.2 12157.2 0
19386.2 13992.1 0
14066.3 12881.6 0
15956 14653.1 0
4717.95 5266.79 0
4452.05 4395.76 0
17155 7712.81 0
19046.2 1489.16 0
17064 3704.81 0
12917.8 120.095 0
1259.06 4248.23 0
263.229 2898.92 0
2253.06 16360.2 0
1273.03 16588.1 0
5720.44 9560.07 0
7604.29 7643.34 0
3036.88 16350.3 0
2744.63 16083.5 0
7241.74 8321.79 0
9559.22 7202.1 0
17306.7 5597.39 0
18095.6 5151.71 0
4685.36 6888.01 0
9154.03 1261.92 0
1475.14 16559.8 0
323.55 16902.5 0
5629.72 3623.82 0
4811.93 1540.58 0
2064.8 4547.21 0
1869.61 2698.05 0
7222.6 12236.1 0
9287.06 9484.37 0
17754.5 2783.5 0
17799.1 2509.37 0
7869.84 7445.52 0
8064.75 5060.12 0
2880.11 16352.3 0
108.698 12995.7 0
4885.86 7746.67 0
5666.29 7049.17 0
5146.06 5990.13 0
6044.5 5662.77 0
3962.58 11247 0
2014.19 11583.5 0
8971.71 6885.38 0
11689.8 4888.25 0
9873.23 17680 0
12008.1 19353.9 0
8022.37 13407.8 0
7007.2 13733.4 0
18661.9 13075 0
19436.4 13075.2 0
8253.56 6335.65 0
8731.7 5863.55 0
9771.81 17424.1 0
8004.57 17830.6 0
4725.6 6814.47 0
4886.54 6520.27 0
7241.74 7961.51 0
6879.19 7198.84 0
7061.27 12003.2 0
5208.9 12993.2 0
8403.45 13851.6 0
10454 12345 0
15877.2 2914.89 0
15276.2 3339.96 0
16352 3230.86 0
16579.8 1758.34 0
4879.16 1798.52 0
4162.21 102.183 0
2053.89 2963.51 0
2595.81 2176.18 0
8336.74 13881.9 0
8279.67 13919.7 0
4483.59 11053 0
4114.28 10452.6 0
6276.83 10769 0
6337.91 10571 0
2871.21 4868.46 0
3484.44 3407.36 0
15285.3 2355.93 0
15217.2 1933.63 0
16816.2 8640.62 0
14012.4 6337.34 0
14995 12447 0
14976.7 11532 0
16363.5 2816.99 0
16181.9 2634.04 0
17019.5 8083.93 0
17614.7 7919.76 0
12262.6 13875.7 0
12552.3 13528.1 0
5243.32 15800.4 0
4911.67 15830.3 0
8299.71 17721.6 0
5945.77 18098.6 0
11489.4 18457.5 0
13684.4 18219.4 0
8471.43 5492.7 0
9531.69 3396.41 0
17953.9 12764.8 0
18169.7 12441.9 0
5831.72 9801.86 0
5165.14 9769 0
6075.19 12884.7 0
6035.26 13142.4 0
5930.22 14660 0
4985.35 14216.1 0
8614.16 1273.86 0
9429.01 494.513 0
2056.07 3280.25 0
22.5096 114.183 0
17841.1 5350.94 0
19978.5 4365.14 0
11028 14693.5 0
11145.8 14172.3 0
5505.61 7199.57 0
6423.74 6406.16 0
18040.2 12635.6 0
19129.4 11772.8 0
17486 12643.3 0
18782.6 15992.9 0
19172.4 9188.89 0
19914.7 8479.23 0
12417 13773.5 0
12714.2 14345.9 0
14809.3 12533.9 0
14956.2 12578.2 0
18368.3 12033 0
18315.9 11560.4 0
18556.4 1499.52 0
18467.6 867.894 0
14461.7 6360.84 0
13454.9 4151.56 0
7431.43 2149.42 0
7637.75 1949.81 0
2226.09 4611.46 0
927.304 5678.34 0
9023.85 15536.3 0
8788.99 15654.4 0
14654 1746.97 0
14496.4 1546.94 0
645.758 14201.1 0
65.6395 14331 0
3960.84 494.539 0
3300.3 234.906 0
11521.8 14366.4 0
13719.7 16195.7 0
4844.13 7656 0
3133.58 8018.89 0
12540.4 13691.7 0
12182.1 12543.2 0
12933.3 18602.3 0
14318.8 19657.9 0
10852.8 4855.38 0
11200.9 4167.76 0
14172.5 18826.1 0
17743.9 18665.5 0
9002.99 13492.3 0
9350.59 13561.4 0
8586.39 4821.16 0
7986 4231.31 0
12066.1 12731 0
11533.8 11864.2 0
1894.92 14964.5 0
2422.86 13715.7 0
8176.82 6557.62 0
7271.97 5765.39 0
16352.8 2046.99 0
15877.6 1084.28 0
15182.9 13895.8 0
15297.4 13981.5 0
1579.51 1723.19 0
1881.45 970.635 0
2730.08 17795.9 0
3292.33 19750.9 0
LINES 199 597
2 28 1
2 72 2
2 2 3
2 162 4
2 6 5
2 86 6
2 6 7
2 78 8
2 36 9
2 84 10
2 66 11
2 8 12
2 130 13
2 8 14
2 16 15
2 174 16
2 146 17
2 116 18
2 198 19
2 172 20
2 34 21
2 24 22
2 30 23
2 108 24
2 74 25
2 16 26
2 194 27
2 46 28
2 28 29
2 112 30
2 154 31
2 44 32
2 164 33
2 52 34
2 34 35
2 60 36
2 48 37
2 126 38
2 82 39
2 18 40
2 40 41
2 38 42
2 68 43
2 30 44
2 136 45
2 20 46
2 132 47
2 36 48
2 48 49
2 64 50
2 92 51
2 160 52
2 94 53
2 2 54
2 54 55
2 32 56
2 56 57
2 42 58
2 122 59
2 40 60
2 166 61
2 38 62
2 140 63
2 80 64
2 64 65
2 98 66
2 66 67
2 58 68
2 178 69
2 0 70
2 120 71
2 96 72
2 72 73
2 124 74
2 74 75
2 190 76
2 76 77
2 70 78
2 118 79
2 46 80
2 80 81
2 42 82
2 82 83
2 54 84
2 128 85
2 4 86
2 182 87
2 90 88
2 88 89
2 32 90
2 192 91
2 50 92
2 168 93
2 134 94
2 94 95
2 4 96
2 96 97
2 10 98
2 98 99
2 10 100
2 100 101
2 20 102
2 102 103
2 88 104
2 104 105
2 22 106
2 156 107
2 150 108
2 108 109
2 90 110
2 110 111
2 106 112
2 112 113
2 170 114
2 114 115
2 12 116
2 116 117
2 78 118
2 118 119
2 70 120
2 176 121
2 76 122
2 184 123
2 144 124
2 142 125
2 100 126
2 126 127
2 84 128
2 128 129
2 12 130
2 130 131
2 158 132
2 132 133
2 52 134
2 196 135
2 44 136
2 136 137
2 14 138
2 138 139
2 62 140
2 140 141
2 124 142
2 152 143
2 24 144
2 144 145
2 22 146
2 146 147
2 114 148
2 148 149
2 26 150
2 150 151
2 142 152
2 152 153
2 56 154
2 154 155
2 106 156
2 156 157
2 50 158
2 158 159
2 102 160
2 160 161
2 14 162
2 162 163
2 104 164
2 164 165
2 188 166
2 166 167
2 92 168
2 168 169
2 138 170
2 170 171
2 62 172
2 172 173
2 148 174
2 186 175
2 120 176
2 180 177
2 68 178
2 178 179
2 176 180
2 180 181
2 86 182
2 182 183
2 122 184
2 184 185
2 174 186
2 186 187
2 60 188
2 188 189
2 58 190
2 190 191
2 110 192
2 192 193
2 26 194
2 194 195
2 134 196
2 196 197
2 18 198
2 198 199
CELL_DATA 199
SCALARS radius float
LOOKUP_TABLE default
7.42075
31.8255
6.8939
32.3187
6.34389
7.85022
6.11328
41.1341
7.61867
31.2192
5.75141
20.3046
6.52887
39.4141
6.11321
29.476
9.33376
19.5455
11.0269
26.4824
8.91961
27.0282
7.71642
28.882
9.63896
29.388
9.08612
10.9273
9.64106
24.7718
11.5433
23.524
15.5359
12.6586
10.9662
12.2929
6.6655
30.4882
6.7661
17.3234
6.03708
20.2223
7.66184
24.5197
6.82068
21.3381
11.0094
11.2278
10.3827
19.8278
7.31078
19.2793
7.75377
31.7173
8.84295
15.6587
7.52729
19.5644
8.23501
17.0755
11.398
27.1758
5.85713
20.1901
7.57793
11.0643
10.52
14.7776
11.2715
41.7397
6.56211
31.9134
6.44609
11.5813
8.69688
15.3082
7.74913
41.2964
5.29627
20.3366
5.65052
9.20982
7.78286
31.4865
8.25024
10.6878
8.29893
18.2013
9.45737
20.9373
9.46383
15.4878
11.1029
11.4916
10.1684
31.9243
3.21581
12.0713
7.39549
30.6056
4.52067
20.6902
9.20781
17.3069
9.01387
26.1587
8.06901
29.0003
6.67362
14.6565
7.40173
24.9408
6.79091
29.8768
5.29062
19.6691
5.22413
9.38662
8.7871
13.1855
6.83231
14.6154
11.7317
14.6176
5.87365
30.5727
6.1813
9.23827
6.09912
9.13235
7.84782
15.4001
13.2342
17.2551
13.5137
11.9907
11.2046
30.1429
5.37776
9.73966
8.97516
11.6226
9.34752
16.3211
10.6976
12.265
10.1051
29.8214
5.79979
29.0307
4.25407
11.0994
8.1964
15.056
12.3306
13.3617
12.2985
15.9792
7.53445
20.0635
9.69258
32.3455
4.37837
16.4502
8.88634
13.1905
9.33785
14.9246
12.5054
30.0858
8.2599
26.7522
8.30799
29.7481
5.56868
12.6198
7.53591
14.0564
11.0393
11.9135
10.8092
9.03317
5.49061
13.6861
9.82668
8.9455
8.15906
14.614
9.38313
16.2127
8.76841
13.9981
12.3754
9.70658
5.47819
15.3544
10.4833
13.1387
9.75154
