# vtk DataFile Version 3.0
Tree
ASCII
DATASET POLYDATA
POINTS 576 float
20000 45000 400
18013 39910.1 0
19403.9 43473 280
24163.8 38082.8 0
17872 40851.7 98
13528.4 37728.7 0
23463.2 39670.3 75.6
28339 39026.9 0
17970.7 40192.6 29.4
19377.7 34521.1 0
17866.3 36424.5 10.878
17018.6 34056.7 0
14083.4 38998.1 31.36
10546.5 38693 0
17408.5 35145.9 5.00388
15001.9 34735.1 0
27811.2 39431.2 18.144
30633.3 39919.3 0
24000.2 38168.2 32.508
25147.1 33816.5 0
25078.3 34094.1 75.1797
29489.2 17460.4 400
28750.6 19670.3 351.277
29379.2 17053 400
15723.9 34858.3 1.50116
5764.44 22116 400
28148.6 27473.7 217.289
37828.6 22864.8 400
29267.6 18123.4 385.383
34124.4 17386.5 400
35705.9 22767.7 361.631
37614.6 20329.2 400
10101.7 25614.3 260.525
11846.4 15247.7 400
7292.58 22554.3 351.184
5836.5 16500.8 400
6523.86 17793.7 386.82
7938.06 14061.4 400
31113.2 17843.4 390.938
32259.2 14622.3 400
6222.88 22247.5 385.355
3828.76 24352.4 400
33334.9 17169.3 396.828
36012.8 14692.6 400
31948 15028.4 397.553
32246.8 11311.1 400
35521.4 15650.5 398.89
39197.8 15343.3 400
7663.57 14274.4 396.837
8169.9 11623.1 400
35897.9 14715.4 399.523
36701.4 11913.6 400
10882.4 39010.9 7.5264
8714.33 39567 0
19324.1 34765.5 2.93706
21909.8 32596 0
28180.7 39148.2 5.4432
29646.7 36665.9 0
29206.9 37410.6 1.63296
27851.9 35013 0
19353 34633.5 1.35105
18680.8 32270.3 0
17113 34181 1.75136
16717.8 32221.4 0
10231.9 39177.8 5.26848
8712.64 37641.2 0
15218.5 34772.1 0.450349
13171.2 33387.9 0
28070.1 35069.8 0.39191
27469.7 33160.9 0
21134.1 33246.9 0.881118
20776.3 30920.4 0
21754.1 32663.9 0.378881
23180.3 31081.8 0
20658.2 31646.6 0.308391
19037.9 30291.3 0
28411.1 35772.1 0.764225
29704.9 33845.2 0
13597.4 34076.2 0.19365
9927.27 34053.1 0
16677.3 32343.7 0.560435
16121.7 30418.8 0
25999.4 32108 117.812
25068.1 30869.6 0
12496.4 34069.3 0.135555
11550.1 32344.7 0
20084.5 30800.7 0.148028
19998.2 29787.1 0
8832.99 38041.6 1.42249
6642.19 37538.1 0
7438.51 37977.4 0.611671
5601.34 39129.2 0
29466.7 34560.5 0.267479
31238.2 34137.5 0
10588.9 33669.9 0.039311
9728.73 33129.6 0
13799.3 30979 55.2658
13952.6 30243.8 0
11740.2 32409.3 0.0325332
11417.9 31097.2 0
31065.1 34367.5 0.0855932
32644.5 34475.5 0
6735.83 37574.7 0.214085
5320.22 36701.1 0
9986.79 33291.7 0.0117933
7147.39 33849.7 0
26473.6 30126.1 108.699
25850.8 29002.1 0
25845.6 29376.7 46.7407
23900.6 28225.5 0
9826.79 33191.2 0.00448145
9251.42 31536.3 0
26255.5 31037.8 112.891
29121.7 30308.9 0
19943.3 29945.5 0.0754942
19292 27226.3 0
5745.37 38800.9 0.165151
3086.99 39005.5 0
28680.4 30625.1 30.4806
31497.1 31161.7 0
29657.5 30701.4 17.9836
30227.7 30135.2 0
19624.4 27909.4 0.0203834
20410.3 26861.3 0
32170.7 34443.1 0.025678
37308.6 39258.1 0
5444.24 36740 0.0685071
4145.3 35841.5 0
34949.6 36091.8 0.00950085
36218.1 35961.1 0
33004.3 34937.7 0.0208248
35019.1 33925.8 0
24219.4 28141.1 14.957
22816.5 26608.4 0
4742.81 36254.8 0.0315133
3052.46 37099.9 0
12690 29369.6 116.844
13626.6 27226.7 0
37145.8 38411.6 0.00199518
38100.5 38825.8 0
7909.04 33418.8 0.00412765
5489.26 32167.1 0
3457.99 36779.9 0.00850858
2689.13 36444 0
19325.7 27346.8 0.0103955
18321.9 25598.9 0
30183.3 30280.3 7.73294
31662 29432.4 0
13620 27329.8 24.5372
14079.1 26400.8 0
3042.8 36598.5 0.00391395
2971.61 35495.8 0
3081.51 36996.2 0.00433938
1782.68 37524.7 0
34414.7 34229.4 0.00624745
34869.7 32151.2 0
34892.1 34133 0.003686
36659 34126.7 0
11737.7 27260 77.2739
11821.4 26809.5 0
27646.1 28269.4 184.712
26300.9 25898 0
1945.74 37578.3 0.0013886
880.657 38320.1 0
34961.6 32650.5 0.00149939
35587.9 32153.2 0
34897.3 32301 0.000449816
34238.7 30466.4 0
36075.7 36059.5 0.0033253
38372.2 36337.1 0
5851.95 32608.5 0.00111447
3514.78 31042.6 400
37922.3 36545.9 0.0010641
39390.1 37400.2 0
18864 26542.8 0.0056136
20360.8 24130.5 0
26252.9 26252.6 59.1078
24592 24454.3 0
2998.66 35914.8 0.0014873
1331.3 35157.1 0
20244.4 24716.5 0.00151567
22416.3 23663.9 0
38237.2 36399.7 0.000319229
38918 34513.8 0
10723.4 26239.6 190.89
7891.97 27045.3 0
20945.1 24232.6 0.000894246
21060.9 23290 0
5598.07 32299.5 0.00033434
5052.71 29180.7 0
3535.36 32926.6 0.000267472
1759.11 33234.7 0
34436.3 31016.8 0.000134945
35469.5 29412.3 0
2392.79 33031.6 9.36152e-05
1844.76 32554.3 0
7969.37 27007.3 55.3581
6121.23 27511.2 0
38879.2 34985.9 8.61917e-05
39954 34248.7 0
21026.2 23572.8 0.000268274
20439.2 14623.8 400
22194.7 23657.2 0.000241446
23670.9 22519.5 0
35577.5 32291.8 0.000884639
38153.2 31047.6 0
6328.5 27306.7 13.2859
5277.37 27212.6 0
13941.4 26679.5 7.36115
13280.7 22870.2 0
2009.17 32697.5 2.80846e-05
1493.86 31001 0
1920.39 32620.2 1.29189e-05
492.05 32028.3 0
21047.7 23397.5 0.000101944
19753.5 21542.1 0
37932.7 31312.3 0.000185774
38916 31055.8 0
5632.26 27154.3 4.65008
5184.49 26561 0
5383.84 27195.1 1.39502
3736.35 27720.7 0
13478.9 24013 2.20835
15765.5 21507 0
9258.98 24696.3 287.723
9578.73 23602.2 0
13176.4 23089.8 0.70667
12681.7 22348.6 0
38087 31127 5.57323e-05
38251.4 29476.1 0
35242.5 29478.4 3.64351e-05
35841 26790.4 0
4889.59 27352.8 0.976516
4159.44 26660.2 0
8669.06 24053.7 306.761
6640.88 24592.4 0
14153.5 22956.6 1.30292
13887.9 21300.6 0
10625.1 22504.3 302.368
11111 22158.8 0
11070.4 22214.2 81.6393
11757.9 21888.5 0
23228 22860.8 7.24339e-05
23041.9 20539.6 0
10280.3 23248 207.663
9842.15 22494.7 0
9379.15 23918.8 100.703
8952.56 23128.3 0
11645.7 21908 39.1869
12535.7 21399.8 0
6854.14 24375.3 73.6227
5664.1 24278.8 0
38344.7 29586.6 1.78343e-05
38772.3 27984.1 0
32791 23836.7 133.136
32929.9 23164 0
4269.85 26695.6 0.263659
3539.94 25577.5 0
23153.6 20668.4 1.52111e-05
23214.7 19685.7 0
29509.1 22113.6 85.2848
29963.2 21488.6 0
7444.43 23178.3 142.971
6924.66 22972.5 0
28834.6 20975.6 105.324
28282.4 20625.7 0
35933.1 27403.4 9.83748e-06
37652.9 25984.7 0
4276.47 24210.7 117.803
3955.32 24601 0
29827 21676.1 25.5854
31125.5 21346.1 0
19890.5 19591.6 84.0001
18615.6 18568.3 0
3963.07 24309.9 315.341
2491.78 24515.3 0
23196.4 19980.5 4.56334e-06
21836.2 18058.7 0
37429.5 25966.7 2.85287e-06
38308.4 24962.4 0
35044.6 22792.9 74.215
35385.8 22574.6 0
31030.1 21277.2 10.2342
32639.7 20628.5 0
34035.9 22769.9 64.8454
34628.1 21818.7 0
36893.5 22964.9 327.501
37669 23878.3 0
10749.7 19531.6 195.876
10311.1 19054.7 0
32484.8 20937.6 3.78665
33689 20793.1 0
28910.9 18786.2 315.253
28683.7 18402.7 0
38142 25422.7 1.22673e-06
39819.6 25165.3 0
32593.2 20721.2 1.13599
31908.6 19635.5 0
20501.4 17612.3 136.32
21602.2 16780.8 0
11407.6 18054.6 223.567
13333.8 17243.5 0
2933.17 24453.7 94.6023
1798.66 22956.4 0
10383.2 19100 68.5566
9729.7 18185.9 0
32543.4 20820.8 2.35529
33257.6 19227.5 0
1872.2 23265.1 22.7046
1088.86 22775.7 0
28751.9 18517.7 94.576
26538.4 16248.9 0
11823.6 16936.9 203.312
12517.1 16468.6 0
1826.6 23073.7 8.62773
2063.24 21702.3 0
1323.86 22922.5 6.81137
58.4316 23264.2 0
33145.3 19330.8 0.494612
33347.4 18676.9 0
12457 16540.8 54.8943
13425.4 16081.2 0
20482.8 16715.8 215.424
18074 15405.6 0
21516 16900.7 47.712
23738.3 15558.6 0
23092.8 15607 7.1568
23292.4 15340.1 0
23621.8 15568.5 3.07742
24888.6 15480.4 0
6172.88 20112.1 211.17
5011 19119.8 0
18191.3 15669.6 51.7018
16428.2 15225.3 0
16509.9 15349.1 12.4084
15208.6 15286.7 0
30650.2 17827.1 334.707
31365.3 17187 0
33270.6 18925.4 0.187952
34531.8 18689.4 0
24775.4 15485.6 1.13865
25735 15415.1 0
11698.8 17272.2 209.389
10900.4 16244.8 0
9779.52 18273.5 18.5103
8825.18 17048.8 0
15318.2 15282.3 2.97802
14484.6 15217.4 0
5070.79 19259.6 44.3457
4572.41 18956.5 0
20452.3 15251.4 344.627
19118.4 14404.2 0
34389.4 18680.2 0.0695424
35303.8 18459.5 0
6424.58 18057.3 187.469
6462.96 17262.1 0
31674 16672 228.133
32031 16462 0
23216.6 15441.5 2.71958
23353.6 14135.1 0
10932.2 16437 56.5349
9587.94 15636.6 0
23415.2 14579.5 0.951855
24136.4 14043.6 0
18118.6 15505.9 19.6467
17226.5 13584.1 0
9709.33 15717.3 20.9179
8692.72 15123.6 0
31923.9 16525 68.4399
33183.2 15680.4 0
20491.4 14727.8 311.33
20757.2 12722 0
24106.5 14142.1 0.409298
26137.8 13101 0
25903.1 13416.7 0.0982314
27040.6 13336.1 0
35191 18413.9 0.0299032
37306.7 17456.1 0
37568.7 20727.9 275.722
39631.9 18966.2 0
15866.3 15313 7.31601
14475.3 12299.9 0
31729.1 15415.3 282.599
31069.4 13682.9 0
4721.92 19047.4 13.3037
1997.32 16935.1 0
20901.4 13282.1 108.966
22451.4 11707.9 0
3875.91 18007.8 7.84919
3933.58 15695.4 0
17450.5 13824.1 5.3046
17106.3 11592.1 0
37123.6 17715.1 0.00956904
39070.8 17286.4 0
32165.9 14744.1 399.266
33714.3 14156.7 0
33563.1 14388.1 95.8238
34501.5 14479.7 0
14556 13087.1 1.97532
12369 12111.7 0
17209.6 12261.7 1.59138
18476.5 11251.8 0
31872.3 13483.7 231.095
31618.3 13209.2 0
2151.61 17210.7 1.88381
938.125 16999.8 0
31064.3 13765.5 81.9536
29898.8 11085.2 400
30977.9 13146.2 30.3228
31090 12832.2 0
21967.6 12025.9 29.4207
21985.1 10943.1 0
12518.7 12183.9 0.414818
11632 11796 0
1198.62 16924.3 0.452114
828.322 16549.3 0
37883.1 15658 119.833
38107.4 15727.1 0
26067.4 13195.7 0.0294694
25194.4 10889.1 0
7321.65 15330.2 393.832
5562.69 13316.9 0
3802.13 15936.2 2.51174
3530.02 13912.5 0
937.175 16574.8 0.194409
468.509 15580.1 0
31807.7 11977.6 132.085
31636.5 11492.5 0
39004.1 15361.4 220.76
39633.1 15138 0
17137.3 11793 0.477414
15869.2 9352.75 0
35948.6 13196.4 231.823
35616.8 12499.6 0
16878.2 10715 0.281674
17732.6 8799.16 0
5652.05 13328.5 114.211
4560.92 11954.4 0
5252.12 12579.6 58.2477
5523.28 11414.6 0
11898 11912.4 0.124445
10782.6 9533.95 0
36146.1 12487.3 207.275
36008.6 11763.4 0
25456.3 11581.1 0.00884083
27321.3 8913.57 0
5389.52 11718.8 15.7269
5090.82 11340.8 0
39444.4 15205 66.228
39725 13719.9 0
32115.1 11511 319.625
33871.9 10580.7 0
27032.9 9626.14 0.00238702
28857.8 8858.88 0
27162.7 9077.51 0.000835458
26909.8 8303.12 0
17294.2 9302.96 0.098586
16737.4 7608.18 0
17601.1 8950.3 0.0295758
19967.4 6287.74 400
5180.43 11454.2 4.71806
5512.86 10008.7 0
16743.3 8309.65 0.042392
15068.9 7413.26 0
28683.7 9044.58 0.000644496
31134.1 8705.61 0
30049.3 8659.33 0.000186904
30243.2 8361.37 0
26843.7 8554.84 0.000426084
25516.2 7280.11 0
26879.4 8418.91 0.000195998
27426.9 7538.68 0
20175.2 7541.43 0.00768971
21334.1 6918.23 0
21199 7076.31 0.00207622
22604.2 6845.49 0
10747 9905.62 0.0398225
9380.58 8143.12 0
16086.3 7696.84 0.0203482
15832.2 6889.39 0
28777.7 8944.3 0.000296468
28626.7 7664.66 0
4768.28 12142 17.4743
1131.78 11252.5 0
10771.9 9645.45 0.0119467
12052.9 7054.13 0
28559.7 7758.33 7.11524e-05
28257.8 6902.35 0
20687.1 7308.87 0.00488297
20767.2 5946.11 0
39584.1 13862.1 23.1798
39419.7 11022.6 0
20743.2 6354.94 0.00146489
21680.2 5747.07 0
11270.7 7711.69 0.00346456
11075.1 6830.5 0
3194.05 11286.4 8.38767
2263.03 9848.68 0
30844.1 8531.94 8.03687e-05
32394.5 7607.22 0
11973.8 7171.81 0.00121259
13443.3 6250.79 0
21613.7 5886.11 0.00039552
23012.1 5567.89 0
11030 7163.96 0.00148976
10152.2 6505.87 0
22906.8 5695.39 0.000158208
24633.7 5568.66 0
33761.1 10556 86.2989
36468.4 8610.36 0
28360.1 6966.74 3.41531e-05
28105.8 5664.92 0
39196.5 11422.5 7.41754
38434.7 9205.57 0
11061.6 6930.54 0.000446928
11024 5592.2 0
15908.4 7131.63 0.00610445
16621 4572.63 0
5351.24 10116.6 1.65132
5189.5 7165.53 0
23362 14252.6 56.5616
23154 13101.1 400
15867.3 7000.82 0.00280805
15483.3 6341.78 400
26579.8 10181.4 280.002
26723.4 10000.4 400
13292.9 12527.1 1.00781
13075.1 10323.8 400
13091.1 10387.7 284.292
12962.7 8954.66 400
9812.21 9242.87 112.019
8579.72 9049.38 400
22345.6 6889.17 112
22885 6803.66 400
6080.69 32848.2 168.001
5368.02 32774 400
16291.7 4841.83 0.000915667
16303.3 4408.85 0
21352.5 6026.76 0.000716331
21798 4277.71 0
16522.2 4653.39 0.0002747
17062.2 4135.61 0
10262.3 6522.73 0.000715084
9040.62 5437.93 0
31619.3 8069.58 4.01843e-05
31508.1 5611.69 0
32234.4 7647.05 2.0494e-05
34075.2 6207.4 0
5454.11 7535.3 0.396317
5995.89 5956.67 0
2360.59 9945.66 2.26467
1164.34 7768.73 0
36059.3 8604.76 20.7117
37327.9 6922.64 0
31684.5 6193.04 1.08498e-05
32553.9 5023.95 0
1523.21 8421.81 0.679401
2575.07 6842.02 0
9175.98 5533.99 0.000228827
8127.83 4541.22 0
28345.3 5958.98 1.46859e-05
29035.3 3766.94 0
5805.31 6097.56 0.0951162
5779.63 5106.73 0
16299.8 4538.74 0.0002747
15656.2 2765.51 0
32246.6 5186.72 3.47193e-06
32450.1 4269.17 0
2221.42 7194.4 0.183438
2077.55 6312.29 0
21909.2 4636.71 0.000250716
23706 2469.37 0
10919.4 5740.47 0.000156425
10182.7 3305.45 0
32389.1 4544.43 1.04158e-06
31360.9 3528.03 0
LINES 575 1725
2 8 1
2 0 2
2 18 3
2 2 4
2 12 5
2 2 6
2 56 7
2 4 8
2 60 9
2 8 10
2 62 11
2 4 12
2 52 13
2 10 14
2 66 15
2 6 16
2 16 17
2 6 18
2 20 19
2 18 20
2 28 21
2 264 22
2 292 23
2 14 24
2 40 25
2 160 26
2 286 27
2 22 28
2 42 29
2 280 30
2 378 31
2 184 32
2 312 33
2 262 34
2 36 35
2 354 36
2 48 37
2 336 38
2 394 39
2 34 40
2 274 41
2 38 42
2 50 43
2 382 44
2 450 45
2 42 46
2 428 47
2 420 48
2 48 49
2 46 50
2 442 51
2 12 52
2 64 53
2 10 54
2 72 55
2 16 56
2 58 57
2 56 58
2 68 59
2 54 60
2 60 61
2 14 62
2 80 63
2 52 64
2 88 65
2 24 66
2 78 67
2 76 68
2 68 69
2 54 70
2 74 71
2 70 72
2 72 73
2 70 74
2 86 75
2 58 76
2 92 77
2 66 78
2 94 79
2 62 80
2 80 81
2 20 82
2 82 83
2 78 84
2 98 85
2 74 86
2 114 87
2 64 88
2 102 89
2 88 90
2 116 91
2 76 92
2 100 93
2 84 94
2 110 95
2 24 96
2 96 97
2 84 98
2 98 99
2 92 100
2 124 101
2 90 102
2 126 103
2 94 104
2 140 105
2 112 106
2 108 107
2 106 108
2 132 109
2 104 110
2 110 111
2 82 112
2 118 113
2 86 114
2 144 115
2 90 116
2 116 117
2 112 118
2 120 119
2 118 120
2 146 121
2 114 122
2 122 123
2 100 124
2 138 125
2 102 126
2 134 127
2 130 128
2 168 129
2 124 130
2 156 131
2 108 132
2 132 133
2 126 134
2 152 135
2 96 136
2 148 137
2 128 138
2 138 139
2 104 140
2 188 141
2 134 142
2 150 143
2 122 144
2 174 145
2 120 146
2 146 147
2 136 148
2 208 149
2 142 150
2 178 151
2 142 152
2 162 153
2 130 154
2 166 155
2 154 156
2 156 157
2 136 158
2 158 159
2 106 160
2 176 161
2 152 162
2 162 163
2 154 164
2 204 165
2 164 166
2 192 167
2 128 168
2 182 169
2 534 170
2 190 171
2 168 172
2 172 173
2 144 174
2 180 175
2 160 176
2 176 177
2 150 178
2 178 179
2 174 180
2 202 181
2 172 182
2 198 183
2 158 184
2 196 185
2 180 186
2 214 187
2 170 188
2 188 189
2 170 190
2 194 191
2 166 192
2 230 193
2 190 194
2 212 195
2 184 196
2 206 197
2 182 198
2 198 199
2 186 200
2 370 201
2 186 202
2 242 203
2 164 204
2 228 205
2 196 206
2 220 207
2 148 208
2 226 209
2 194 210
2 210 211
2 210 212
2 212 213
2 200 214
2 214 215
2 204 216
2 216 217
2 206 218
2 218 219
2 218 220
2 232 221
2 208 222
2 236 223
2 32 224
2 246 225
2 222 226
2 226 227
2 216 228
2 252 229
2 192 230
2 266 231
2 220 232
2 256 233
2 224 234
2 250 235
2 222 236
2 236 237
2 244 238
2 240 239
2 238 240
2 248 241
2 202 242
2 258 243
2 32 244
2 244 245
2 224 246
2 246 247
2 240 248
2 248 249
2 234 250
2 250 251
2 228 252
2 252 253
2 26 254
2 254 255
2 232 256
2 256 257
2 242 258
2 276 259
2 26 260
2 270 261
2 234 262
2 262 263
2 260 264
2 264 265
2 230 266
2 278 267
2 40 268
2 268 269
2 260 270
2 282 271
2 200 272
2 272 273
2 268 274
2 302 275
2 258 276
2 276 277
2 266 278
2 294 279
2 284 280
2 280 281
2 270 282
2 296 283
2 254 284
2 284 285
2 30 286
2 286 287
2 238 288
2 304 289
2 282 290
2 290 291
2 22 292
2 310 293
2 278 294
2 294 295
2 306 296
2 296 297
2 272 298
2 324 299
2 288 300
2 300 301
2 274 302
2 314 303
2 288 304
2 344 305
2 290 306
2 318 307
2 302 308
2 316 309
2 292 310
2 310 311
2 342 312
2 320 313
2 308 314
2 314 315
2 308 316
2 316 317
2 306 318
2 338 319
2 312 320
2 320 321
2 298 322
2 364 323
2 298 324
2 328 325
2 324 326
2 358 327
2 326 328
2 340 329
2 34 330
2 348 331
2 322 332
2 334 333
2 332 334
2 346 335
2 28 336
2 336 337
2 318 338
2 352 339
2 328 340
2 340 341
2 300 342
2 360 343
2 304 344
2 344 345
2 380 346
2 346 347
2 330 348
2 384 349
2 322 350
2 350 351
2 338 352
2 376 353
2 330 354
2 354 355
2 38 356
2 368 357
2 326 358
2 520 359
2 342 360
2 366 361
2 358 362
2 372 363
2 332 364
2 390 365
2 360 366
2 366 367
2 356 368
2 368 369
2 350 370
2 386 371
2 362 372
2 418 373
2 372 374
2 374 375
2 352 376
2 392 377
2 30 378
2 378 379
2 334 380
2 398 381
2 356 382
2 406 383
2 348 384
2 404 385
2 370 386
2 410 387
2 384 388
2 422 389
2 364 390
2 430 391
2 376 392
2 392 393
2 44 394
2 396 395
2 394 396
2 396 397
2 380 398
2 412 399
2 390 400
2 400 401
2 44 402
2 402 403
2 388 404
2 414 405
2 382 406
2 408 407
2 406 408
2 408 409
2 386 410
2 410 411
2 526 412
2 440 413
2 404 414
2 424 415
2 46 416
2 416 417
2 374 418
2 444 419
2 36 420
2 436 421
2 388 422
2 422 423
2 414 424
2 424 425
2 402 426
2 426 427
2 416 428
2 448 429
2 400 430
2 434 431
2 50 432
2 432 433
2 430 434
2 458 435
2 420 436
2 482 437
2 436 438
2 446 439
2 412 440
2 484 441
2 432 442
2 442 443
2 418 444
2 454 445
2 438 446
2 460 447
2 428 448
2 490 449
2 426 450
2 508 451
2 524 452
2 480 453
2 452 454
2 470 455
2 434 456
2 462 457
2 456 458
2 472 459
2 446 460
2 518 461
2 456 462
2 478 463
2 452 464
2 498 465
2 464 466
2 466 467
2 454 468
2 468 469
2 468 470
2 470 471
2 458 472
2 474 473
2 488 474
2 532 475
2 440 476
2 530 477
2 462 478
2 522 479
2 464 480
2 486 481
2 438 482
2 496 483
2 476 484
2 500 485
2 480 486
2 510 487
2 472 488
2 492 489
2 448 490
2 512 491
2 488 492
2 502 493
2 484 494
2 514 495
2 482 496
2 550 497
2 466 498
2 546 499
2 494 500
2 500 501
2 538 502
2 506 503
2 494 504
2 542 505
2 502 506
2 506 507
2 450 508
2 552 509
2 486 510
2 560 511
2 490 512
2 512 513
2 504 514
2 572 515
2 478 516
2 540 517
2 460 518
2 548 519
2 362 520
2 520 521
2 516 522
2 522 523
2 444 524
2 524 525
2 398 526
2 528 527
2 526 528
2 528 529
2 476 530
2 530 531
2 474 532
2 532 533
2 140 534
2 534 535
2 516 536
2 564 537
2 492 538
2 570 539
2 536 540
2 540 541
2 504 542
2 558 543
2 498 544
2 554 545
2 544 546
2 546 547
2 518 548
2 562 549
2 496 550
2 556 551
2 508 552
2 552 553
2 544 554
2 566 555
2 550 556
2 568 557
2 542 558
2 558 559
2 510 560
2 560 561
2 548 562
2 562 563
2 536 564
2 564 565
2 554 566
2 574 567
2 556 568
2 568 569
2 538 570
2 570 571
2 514 572
2 572 573
2 566 574
2 574 575
CELL_DATA 575
SCALARS radius float
LOOKUP_TABLE default
31.075
31.075
31.075
31.075
31.075
31.075
31.075
31.075
31.075
31.075
31.075
31.075
31.075
31.075
31.075
31.075
31.075
31.075
31.075
31.075
28.4148
31.075
18.3632
31.075
20.1466
31.075
20.5479
31.075
31.075
31.075
11.4291
31.075
26.5057
31.075
20.6928
31.075
31.075
31.075
29.2818
31.075
11.252
31.075
31.075
31.075
31.075
31.075
31.075
31.075
20.1573
31.075
31.075
31.075
31.075
31.075
31.075
31.075
31.075
31.075
31.075
31.075
31.075
31.075
31.075
31.075
31.075
31.075
31.075
31.075
31.075
31.075
31.075
31.075
31.075
31.075
31.075
31.075
31.075
31.075
31.075
31.075
31.075
31.075
31.075
31.075
31.075
31.075
31.075
31.075
31.075
31.075
31.075
31.075
31.075
31.075
31.075
31.075
31.075
31.075
31.075
31.075
31.075
31.075
31.075
31.075
31.075
31.075
31.075
31.075
31.075
31.075
31.075
31.075
31.075
31.075
31.075
31.075
31.075
31.075
31.075
31.075
31.075
31.075
31.075
31.075
31.075
31.075
31.075
31.075
31.075
31.075
31.075
31.075
31.075
31.075
31.075
31.075
31.075
31.075
31.075
31.075
31.075
31.075
31.075
31.075
31.075
31.075
31.075
31.075
31.075
31.075
31.075
31.075
31.075
31.075
31.075
31.075
31.075
31.075
31.075
31.075
31.075
31.075
31.075
31.075
31.075
31.075
31.075
31.075
31.075
31.075
31.075
31.075
31.075
31.075
31.075
31.075
31.075
31.075
31.075
31.075
31.075
31.075
31.075
31.075
31.075
31.075
31.075
31.075
31.075
31.075
31.075
31.075
31.075
31.075
31.075
31.075
31.075
31.075
31.075
31.075
31.075
31.075
31.075
31.075
31.075
31.075
31.075
31.075
31.075
31.075
31.075
31.075
31.075
31.075
31.075
31.075
31.075
31.075
31.075
31.075
31.075
31.075
31.075
31.075
31.075
31.075
31.075
31.075
31.075
31.075
31.075
31.075
31.075
31.075
31.075
31.075
31.075
31.075
31.075
31.075
31.075
31.075
31.075
31.075
31.075
31.075
31.075
31.075
31.075
31.075
31.075
31.075
31.075
31.075
31.075
31.075
31.075
31.075
31.075
31.075
31.075
31.075
31.075
31.075
31.075
31.075
31.075
31.075
31.075
31.075
31.075
31.075
31.075
31.075
31.075
31.075
31.075
31.075
31.075
31.075
31.075
31.075
31.075
31.075
31.075
31.075
31.075
31.075
31.075
31.075
31.075
31.075
31.075
31.075
31.075
31.075
31.075
31.075
31.075
31.075
31.075
31.075
31.075
31.075
31.075
31.075
31.075
31.075
31.075
31.075
31.075
31.075
31.075
31.075
31.075
31.075
31.075
31.075
31.075
31.075
31.075
31.075
31.075
31.075
31.075
31.075
31.075
31.075
31.075
31.075
31.075
31.075
31.075
31.075
31.075
31.075
31.075
31.075
31.075
31.075
31.075
31.075
31.075
31.075
31.075
31.075
31.075
31.075
31.075
31.075
31.075
31.075
31.075
31.075
31.075
31.075
31.075
31.075
31.075
31.075
31.075
31.075
31.075
31.075
31.075
31.075
31.075
31.075
31.075
31.075
31.075
31.075
31.075
31.075
31.075
31.075
31.075
31.075
31.075
31.075
31.075
31.075
31.075
31.075
31.075
31.075
31.075
31.075
31.075
31.075
31.075
31.075
31.075
31.075
31.075
31.075
31.075
31.075
31.075
31.075
31.075
31.075
31.075
31.075
31.075
31.075
31.075
31.075
31.075
31.075
31.075
31.075
31.075
31.075
31.075
31.075
31.075
31.075
31.075
31.075
31.075
31.075
31.075
31.075
31.075
31.075
31.075
31.075
31.075
31.075
31.075
31.075
31.075
31.075
31.075
31.075
31.075
31.075
31.075
31.075
31.075
31.075
31.075
31.075
31.075
31.075
31.075
31.075
31.075
31.075
31.075
31.075
31.075
31.075
31.075
31.075
31.075
31.075
31.075
31.075
31.075
31.075
31.075
31.075
31.075
31.075
31.075
31.075
31.075
31.075
31.075
31.075
31.075
31.075
31.075
31.075
31.075
31.075
31.075
31.075
31.075
31.075
31.075
31.075
31.075
31.075
31.075
31.075
31.075
31.075
31.075
31.075
31.075
31.075
31.075
31.075
31.075
31.075
31.075
31.075
31.075
31.075
31.075
31.075
31.075
31.075
31.075
31.075
31.075
31.075
31.075
31.075
31.075
31.075
31.075
31.075
31.075
31.075
31.075
31.075
31.075
31.075
31.075
31.075
31.075
31.075
31.075
31.075
31.075
31.075
31.075
31.075
31.075
31.075
31.075
31.075
31.075
31.075
31.075
31.075
31.075
31.075
31.075
31.075
31.075
31.075
31.075
31.075
31.075
31.075
31.075
31.075
31.075
31.075
31.075
31.075
31.075
31.075
31.075
31.075
31.075
31.075
31.075
31.075
31.075
31.075
31.075
31.075
31.075
31.075
31.075
31.075
31.075
31.075
31.075
