# vtk DataFile Version 3.0
Purkinje
ASCII
DATASET POLYDATA
POINTS 4 float
-5000 10000 0
5000 10000 0
10000 15000 0
10000 5000 0
LINES 3 9
2 0 1
2 1 2
2 1 3
POINT_DATA 4
SCALARS sigma float
LOOKUP_TABLE default
0.0004
0.0004
0.0004
0.00000004
