# vtk DataFile Version 4.1
vtk output
ASCII
DATASET POLYDATA
POINTS 456 float
20000 45000 0
20000 35000 0
15000 30000 0
9322.63 30415.5 0
11025.8 30290.8 0
8319.69 24438.4 0
9621.99 28477.8 0
6217.34 28627.1 0
9222.63 25407.9 0
11513.5 21265.2 0
7238.74 28582.3 0
5815.13 32811.5 0
11576.4 22507.9 0
17689.7 19785.1 0
6728.04 28604.7 0
5026.94 25591.9 0
14071 20209.5 0
14459.4 18396.9 0
8662.81 24806.8 0
7280.54 21235.7 0
8087.34 21876.3 0
8680.98 19697.2 0
5854.36 30286.2 0
3514.78 31042.6 0
8144.37 28542.6 0
3828.76 24352.4 0
5813.94 26279.9 0
5764.44 22116 0
7932.51 20535.3 0
5836.5 16500.8 0
10602.1 22738.5 0
11846.4 15247.7 0
9744.49 17521.1 0
7938.06 14061.4 0
11282.8 15354 0
13075.1 10323.8 0
10206 16870.9 0
8169.9 11623.1 0
9428.56 14359 0
8579.72 9049.38 0
10529 16415.9 0
12962.7 8954.66 0
13175.8 10818.5 0
15483.3 6341.78 0
17129.8 19795.8 0
20669.1 19042.9 0
3901.54 30627.2 0
2222.27 30423.5 0
5228.03 23054.3 0
4462.52 22268 0
7786.05 21047.3 0
6410.8 20073.6 0
4018.96 24975.5 0
2806.45 24925.8 0
14524.7 18933.8 0
16118.7 16664.6 0
10905.9 15884.9 0
12437.8 16433.4 0
4891.05 22573.2 0
4297.34 21134.2 0
3317.42 24726.9 0
2039.26 23324 0
19211.9 18595 0
23154 13101.1 0
15951.4 17267 0
17798.2 15574.2 0
6362.67 18386.9 0
5642.05 18205.8 0
21492.1 16464.9 0
22016.5 16557.2 0
4261.38 25661 0
237.366 25865.8 0
17467.3 15974.1 0
18996.7 15166.1 0
4443.41 21677.2 0
3177.95 19770.8 0
18120 15220.2 0
18256.6 14583.1 0
20494.7 16972.7 0
20068.1 14766.5 0
8293.98 16135.6 0
7194.1 15952.2 0
20115.4 18872.7 0
22767.9 15843.6 0
3038.03 20275.1 0
2340.55 19786.2 0
20130.8 15406.6 0
19682.7 13900.9 0
19541.5 14400.1 0
17298.1 12841.9 0
12709 12649.5 0
14574 12558.1 0
5994.35 17066.6 0
3154.91 16717.8 0
13483.4 12366.8 0
13876.2 11718.2 0
14067 12294.2 0
15548.8 11479.5 0
17868.1 12768.9 0
17106.3 11592.1 0
19969.2 14659.4 0
20113 12010.6 0
5635.58 32265.4 0
5368.02 32774 0
8044.83 14683.7 0
4761.4 13930.4 0
15104.3 11723.9 0
16090.6 10692.1 0
20488.6 12341.2 0
20850.4 11371.2 0
15496.1 11000.1 0
15376.4 10318.2 0
5323.56 13841.2 0
3207.33 13054.5 0
11220.9 10506.6 0
10995.9 9572.83 0
9273.16 10439.3 0
9388.45 9897.22 0
20669.5 11856.2 0
18932.4 9505.35 0
14712.5 9177.68 0
15680.8 9150.15 0
8166.9 12266.9 0
5721.07 10945.5 0
20244.2 10909.4 0
20982.2 9627.33 0
11829.8 9493.65 0
11799.8 8870.81 0
6272.97 11005.2 0
5346.34 10175.3 0
8665.41 9559.35 0
7458.2 9217.19 0
5568.56 10708 0
3558.05 10957.1 0
11549.7 9959.59 0
11879.2 7576.05 0
4192.19 10526.6 0
3679.69 10104.2 0
15711.2 7428.85 0
16558.2 6971.91 0
11998.5 8125.77 0
13367 6905.79 0
19573.9 9759.79 0
19485 7010.23 0
21011.2 10187.7 0
24299.4 8226.65 0
12951 7185.34 0
13836.3 6161.37 0
23886.4 8665.3 0
24960.2 8290.54 0
11863.9 8675.91 0
9594.85 6522.34 0
19841.4 8120.15 0
21757.7 6493.16 0
8013.52 9374.58 0
6968.88 6814.73 0
20424.1 7082.88 0
19967.4 6287.74 0
20183.9 6328.3 0
19151.4 5602.02 0
10706.5 6608.51 0
10526.5 5676.35 0
24444.8 8200.57 0
24960.4 7326.76 0
4678.11 10317.2 0
2649.15 8369.58 0
3044.75 9222.84 0
402.45 9595.35 0
7458.32 7084.28 0
7412.92 5689 0
21221.2 6632.54 0
22784 5340.46 0
24702.6 7763.66 0
26551.3 6865.12 0
13499.9 6550.48 0
12688.8 4287.67 0
3587.32 9150.42 0
2182.46 7088.23 0
15588.1 6841.83 0
16612.8 3587.94 0
21974 5747.27 0
21798 4277.71 0
7430.17 6219.21 0
6432.98 4799.57 0
2181.71 7645.56 0
975.619 7311.09 0
6506.26 5318.03 0
5728.97 4783.37 0
13074.8 4733.24 0
13881.7 3106.33 0
21627.7 6154.49 0
24151.1 4619.27 0
1458.28 7497.9 0
29.5974 7427.05 0
3091.59 8075.98 0
3560.39 5238.02 0
13202.3 5278.41 0
11114.1 2566.6 0
13471.6 3561.24 0
12969.6 2288.44 0
23583.4 4947.42 0
24962.8 4002.42 0
20391.8 15939.1 0
20439.2 14623.8 0
22455.9 8752.99 0
22885 6803.66 0
24572.1 4353.52 0
25620.6 4147.75 0
13280.8 3077.58 0
14981.8 1804.61 0
13970.5 2254.65 0
14072.5 1754.71 0
13625.7 2666.11 0
12910.9 1574.64 0
25096.4 4250.63 0
26891.7 3587.8 0
24049.7 4410 0
24442.4 2593.48 0
6931.26 5732.57 0
7168.73 1903.53 0
6430.43 3171.9 0
5574.84 2279.59 0
24053.9 3257.02 0
22873.6 1753.76 0
23019.9 2266.01 0
21710.1 1435.72 0
2963.44 6296.49 0
736.364 4081.93 0
14465.7 1840.96 0
14979.6 424.804 0
11725.4 2804.75 0
10730 744.653 0
6834.89 2353.97 0
7242.12 1337.89 0
25000 30000 0
23616.3 24703.3 0
23050.1 24118.1 0
30035.2 26768.8 0
29593.1 25611.9 0
33971.9 25907.7 0
32813.8 26219.4 0
35082.7 28767.8 0
31332.3 25940 0
32890.6 22792.3 0
32423.1 23736.6 0
29645.2 20213.6 0
33406.5 25807.8 0
34813.7 23880.4 0
32656.8 23264.4 0
27734.8 17763.9 0
34244.7 24203.8 0
34267.4 21371.8 0
33847.7 21712.3 0
32794.4 19351.2 0
29971.8 19002.1 0
29489.2 17460.4 0
28298.2 17976.6 0
24888.6 15480.4 0
33993.2 24685 0
38500.7 24451.2 0
30274.1 18139.4 0
31511.5 16382 0
31396.8 16891.7 0
33078.6 16633.5 0
31060 17266 0
30132.9 15248.7 0
26767.8 16036.4 0
26729.2 13900.2 0
36977 24123.3 0
37828.6 22864.8 0
32684 16959 0
36386.8 18018 0
27032.4 14761 0
28776.5 13487.7 0
34633.4 16889.3 0
35473.9 16263.5 0
38249.9 21694.5 0
39053.1 19639.9 0
30411 15853.9 0
32327.2 14074.1 0
35982.9 17206 0
36969.8 17078.9 0
38549.1 19983.6 0
38400.4 17932.2 0
28228.6 13835.3 0
30219.8 12059.8 0
35053.6 16576.4 0
35243.1 13974.5 0
29944.5 12577.6 0
31512.3 11879.8 0
29455.2 12694.1 0
29898.8 11085.2 0
29667.4 11497.2 0
26723.4 10000.4 0
35127.3 14463.7 0
34781.2 12450.6 0
28985.6 10996.4 0
28981.7 10031 0
38636.9 18423.1 0
39633.1 15138 0
28063.1 10628.3 0
28142.8 8827.14 0
28118.9 9367.49 0
26452.7 8576.2 0
31008.2 11869.5 0
32726.6 9662.93 0
35207.5 12817 0
35809.3 10883.4 0
35628.8 11463.5 0
37865.9 11326.4 0
37336.9 11370.9 0
39680.4 11301.3 0
32032.4 9969.09 0
32064.4 6333.44 0
32345.5 7639.69 0
34152.5 6574.66 0
33867.7 7009.05 0
35200.3 6908.89 0
36824.5 11398.7 0
38362.3 8483.12 0
32171.2 6829.81 0
28770.7 4531.22 0
34693.9 6946.95 0
36766.2 7018.72 0
36242.5 6866.96 0
37021.9 6073.11 0
35406.2 6910.15 0
35786.1 5350.77 0
29249.1 4289.79 0
28046.1 3032.89 0
36841.1 6553.21 0
39015.2 6156.91 0
30136.1 4682.57 0
29949.6 2196.76 0
35794 5914.89 0
37226.1 3699.57 0
38059.5 6090.6 0
38866.3 4466.02 0
30035.4 3340.23 0
33415.1 2144.23 0
32903.2 2146.12 0
35449.5 784.13 0
35253.9 1270.85 0
37661.1 965.863 0
29831.8 26236.6 0
27991.8 28707.2 0
27814.4 24574.2 0
28454.2 24449.6 0
30810.5 25841.6 0
31911.9 29306.2 0
28800.3 18284.3 0
23789.6 22572.6 0
24813 20108.2 0
23290.8 20162.9 0
33787.5 25353.7 0
34661.4 25371.6 0
29310.2 18806.1 0
28175 19396.4 0
34984.8 28037.3 0
35984 28302.8 0
35514.8 28053.9 0
36272.8 27492 0
34460.1 22462.9 0
34757 21895.9 0
25561.2 15971 0
23921.3 17276.7 0
37921.7 24326.6 0
39725.8 24829.4 0
26729 15178.8 0
25678 13827.9 0
31722.8 14296.5 0
31846.3 13713.7 0
34817.1 15034.5 0
33095.6 13259.2 0
27285.8 8971.85 0
25340.9 11255.3 0
31315.4 11299.4 0
31927.9 11443.1 0
35367.6 12302.7 0
34048.2 11374.2 0
36329.9 11666.1 0
36701.4 11913.6 0
38040 11350 0
38712.6 13215.8 0
38718.9 12673 0
39311.5 12876.6 0
37163.2 9723.95 0
36862 8869.03 0
33346.3 7058.43 0
33948.9 5785.12 0
37683.2 6484.14 0
39810.3 7216.37 0
36223.6 5250.29 0
35632.2 4434.99 0
31252.4 2470.98 0
31499.2 1867.64 0
37261.7 4226.56 0
37755.2 3920.65 0
29989.1 2722.76 0
30403.2 57.7401 0
37214.3 1229.42 0
39111.8 2260.19 0
24230.3 22260.5 0
24486.2 23570.4 0
31429.1 27028.9 0
32075.9 27112.5 0
33548 27263.8 0
33476.4 27797.2 0
26837.8 20018.3 0
26577.5 20794.4 0
34451.9 27945.3 0
34770.3 29313.8 0
34778.9 28697.3 0
35809.8 29113.2 0
30479.7 17607.6 0
30334.6 16988.8 0
25734.1 14357.5 0
24376.8 13789.3 0
33000.2 7461.61 0
35091.4 7488.7 0
28595.1 3903.43 0
27944.7 3987.28 0
35700.6 6442.85 0
36761.2 5491.7 0
39169.1 6691.09 0
39951.1 6177.19 0
30948.6 26521.9 0
30250.6 27732.4 0
33978.4 23102.6 0
33502.9 22452.4 0
36717.2 24648 0
37245.2 24752.5 0
38258.2 22223.3 0
39370.6 21501.4 0
34100.9 23609.1 0
37614.6 20329.2 0
31206.9 20962.8 0
34124.4 17386.5 0
35265.4 15678.9 0
36012.8 14692.6 0
30657.6 16390.5 0
32259.2 14622.3 0
36652.4 20245.1 0
39197.8 15343.3 0
31232.1 14548.2 0
32246.8 11311.1 0
33367.6 14283.2 0
32782.1 14263.6 0
35439 13444.7 0
37107.8 12242.6 0
35927.9 4842.64 0
35346.4 5055.64 0
30204.7 21327.3 0
29751.5 21070 0
34896.5 24777.9 0
35191.7 25419.9 0
LINES 136 408
2 0 1
2 1 2
2 1 234
2 2 4
2 4 6
2 6 8
2 6 24
2 8 18
2 8 30
2 10 22
2 12 16
2 16 44
2 18 20
2 20 50
2 22 46
2 22 102
2 24 10
2 24 26
2 26 48
2 26 70
2 28 66
2 30 12
2 30 32
2 32 36
2 32 80
2 34 31
2 34 90
2 36 38
2 36 40
2 38 116
2 38 122
2 40 56
2 40 114
2 42 35
2 42 120
2 44 62
2 46 23
2 48 27
2 50 28
2 52 25
2 56 34
2 62 78
2 66 92
2 68 63
2 70 52
2 78 68
2 78 202
2 80 104
2 86 100
2 90 42
2 92 29
2 100 108
2 102 103
2 104 33
2 108 118
2 114 134
2 116 130
2 118 124
2 120 138
2 122 37
2 124 142
2 124 144
2 126 41
2 130 39
2 134 126
2 138 178
2 142 152
2 144 204
2 152 156
2 156 158
2 158 157
2 178 43
2 202 86
2 202 203
2 204 205
2 234 236
2 236 346
2 238 348
2 240 246
2 242 240
2 242 244
2 244 248
2 246 354
2 248 436
2 250 434
2 254 260
2 254 356
2 256 266
2 258 250
2 258 454
2 260 255
2 260 414
2 262 270
2 264 262
2 264 440
2 266 368
2 268 432
2 270 274
2 272 284
2 274 286
2 276 269
2 278 444
2 284 290
2 286 438
2 290 292
2 292 291
2 292 296
2 294 448
2 296 300
2 300 293
2 306 378
2 308 380
2 346 238
2 348 242
2 350 256
2 354 258
2 356 350
2 368 272
2 372 294
2 378 308
2 380 381
2 414 264
2 430 268
2 432 276
2 434 442
2 436 254
2 436 437
2 438 372
2 438 439
2 440 278
2 440 441
2 442 435
2 442 443
2 444 445
2 448 306
2 454 430
POINT_DATA 456
SCALARS LAT float
LOOKUP_TABLE default
0
5.26316
8.98477
0
11.082
0
12.2889
0
13.9182
0
13.5444
0
16.0266
0
0
0
17.8119
0
14.3505
0
15.9224
0
14.6999
16.042
13.0673
16.3821
14.7769
17.0712
16.6669
19.0979
15.4997
19.9831
18.2825
20.4459
19.6813
22.5507
18.7022
21.7108
20.0861
22.9857
18.9959
23.4096
22.285
25.1127
19.4365
0
15.7432
0
16.5023
0
16.3866
0
16.0392
0
0
0
19.3386
0
0
0
0
0
20.7015
24.3538
0
0
18.0673
0
22.3791
0
15.6566
0
0
0
0
0
0
0
21.79
0
19.3383
0
0
0
0
0
22.6488
0
0
0
21.2905
0
18.7888
0
0
0
0
0
0
0
23.0512
0
15.7479
16.0504
20.1136
0
0
0
24.3015
0
0
0
0
0
22.1273
0
22.1507
0
24.574
0
23.4682
0
21.3719
0
25.1202
0
22.7493
0
0
0
22.7136
0
0
0
22.4632
0
0
0
24.5281
0
0
0
25.8206
0
25.6745
0
0
0
0
0
0
0
26.695
0
0
0
27.3212
27.8539
27.738
0
0
0
0
0
0
0
0
0
0
0
0
0
0
0
0
0
0
0
24.8438
0
0
0
0
0
0
0
0
0
0
0
0
0
0
0
0
0
0
0
0
0
0
0
22.3367
23.0294
26.7461
27.7967
0
0
0
0
0
0
0
0
0
0
0
0
0
0
0
0
0
0
0
0
0
0
0
0
0
0
0
0
8.98477
0
12.2462
0
15.849
0
17.574
0
16.7805
0
18.0745
0
17.9538
0
18.3518
0
18.9198
0
0
0
21.0031
22.0305
22.0602
0
18.634
0
21.4843
0
22.4038
0
22.1388
0
23.3608
0
20.3808
22.5199
23.0822
0
24.0844
0
24.1088
0
21.8652
0
22.9567
0
0
0
0
0
24.8805
0
24.3846
0
0
0
25.7623
26.6508
26.402
28.1488
25.625
0
26.8473
0
0
0
27.37
0
0
0
0
0
26.5379
0
27.284
0
0
0
0
0
0
0
0
0
0
0
0
0
0
0
0
0
0
0
0
0
0
0
0
0
0
0
0
0
0
0
0
0
0
0
0
0
14.7652
0
16.501
0
21.7503
0
0
0
18.2658
0
21.3663
0
0
0
0
0
0
0
0
0
0
0
23.8127
0
0
0
25.2831
0
0
0
0
0
26.8214
0
27.6681
27.9031
0
0
0
0
0
0
0
0
0
0
0
0
0
0
0
0
0
0
0
0
0
0
0
0
0
0
0
0
0
0
0
0
21.7843
0
0
0
0
0
0
0
0
0
0
0
0
0
0
0
20.0726
0
21.5869
0
19.2418
21.9723
19.7835
22.2127
24.8699
25.5212
22.6459
23.9015
21.464
24.371
23.7685
25.554
0
0
26.1858
0
0
0
0
0
19.1119
0
