# vtk DataFile Version 4.1
vtk output
ASCII
DATASET POLYDATA
POINTS 104 float
20000 45000 0
20000 35000 0
15000 30000 0
25000 30000 0
6564.08 29802.9 0
7528.04 17459.9 0
9907.41 21726.6 0
14976.5 19092.9 0
10275.7 11265.9 0
12800.4 25777.5 0
13333.8 17243.5 0
20283.6 9272.24 0
14737.5 22360.3 0
10514.1 9610.27 0
16122 9576.38 0
14574 12558.1 0
14504.2 15049.9 0
5414.7 25486.6 0
12081.8 11652.5 0
6385.19 27697.1 0
20511.4 11686.1 0
17485.7 12356.2 0
10690.2 29139 0
17483.9 16733.8 0
3828.76 24352.4 0
5764.44 22116 0
15483.3 6341.78 0
12962.7 8954.66 0
13075.1 10323.8 0
8579.72 9049.38 0
11846.4 15247.7 0
8169.9 11623.1 0
3514.78 31042.6 0
5368.02 32774 0
23154 13101.1 0
22885 6803.66 0
19967.4 6287.74 0
20439.2 14623.8 0
7938.06 14061.4 0
5836.5 16500.8 0
34355.8 12672.1 0
24402.1 24956.4 0
27495.6 17584.2 0
31764.4 17371.1 0
34663.8 22295.6 0
32817.4 20834.6 0
25611.8 20442.8 0
36324.8 17845.6 0
29599.2 25411.9 0
29606.3 13930.1 0
29447.5 20785.5 0
36701.4 11913.6 0
34124.4 17386.5 0
39197.8 15343.3 0
36012.8 14692.6 0
26723.4 10000.4 0
29489.2 17460.4 0
29898.8 11085.2 0
32246.8 11311.1 0
37828.6 22864.8 0
37614.6 20329.2 0
32259.2 14622.3 0
5664.1 24278.8 0
13797.7 23939.3 0
8435.32 18955.8 0
5995.28 32252.9 0
5744.85 23451.5 0
15780.3 18296.8 0
16692.6 17534.1 0
8137.49 28636.1 0
7130.94 16154.1 0
11975.2 24618.8 0
18292.6 15793.7 0
7611.49 15052.9 0
18798 15417.2 0
20068.1 14766.5 0
6542.47 31482.9 0
9182.91 20377.4 0
7194.1 15952.2 0
14887.5 20451 0
9575.8 28846.6 0
5568.08 26709 0
7330.32 16951.3 0
30237.8 23988.3 0
32709.9 15757.1 0
28648 21894.4 0
33994.2 22669.1 0
26839.5 22690.8 0
27636.7 22304.8 0
32183.8 21326.6 0
26110.7 23115.9 0
32578 23380.9 0
25403.5 23711.7 0
26344.5 19463.1 0
27146.9 18159.2 0
28904.8 21608 0
29124.7 21242.6 0
32929.9 23164 0
32217.3 23664 0
33696.9 13808.1 0
27066.5 13157 0
31404.5 22390.8 0
27365.2 15793.8 0
28006.5 27048.3 0
LINES 103 309
2 0 1
2 1 2
2 1 3
2 2 22
2 2 9
2 3 41
2 3 103
2 4 76
2 4 32
2 5 39
2 5 82
2 6 77
2 7 10
2 7 67
2 8 31
2 9 71
2 9 63
2 10 30
2 10 16
2 11 35
2 11 36
2 12 79
2 13 29
2 14 27
2 14 26
2 15 28
2 15 18
2 16 15
2 16 21
2 17 24
2 17 62
2 18 8
2 18 13
2 19 81
2 20 34
2 20 11
2 21 20
2 21 14
2 22 80
2 22 4
2 23 72
2 40 58
2 40 51
2 41 46
2 41 92
2 42 102
2 42 49
2 43 52
2 43 84
2 44 59
2 44 60
2 45 47
2 46 93
2 47 54
2 47 53
2 48 98
2 48 83
2 49 61
2 49 57
2 50 56
2 50 43
2 62 66
2 63 12
2 64 5
2 65 33
2 66 25
2 67 68
2 68 23
2 69 19
2 70 78
2 71 6
2 72 74
2 73 38
2 74 75
2 75 37
2 76 65
2 77 64
2 78 73
2 79 7
2 80 69
2 81 17
2 82 70
2 83 101
2 84 99
2 85 95
2 86 44
2 87 88
2 88 85
2 89 45
2 90 87
2 91 97
2 92 90
2 93 94
2 94 42
2 95 96
2 96 50
2 97 86
2 98 91
2 99 40
2 100 55
2 101 89
2 102 100
2 103 48
POINT_DATA 104
SCALARS LAT float
LOOKUP_TABLE default
0
5.26316
8.98477
8.98477
13.4975
16.6827
14.1105
15.2827
21.5729
11.4906
16.5846
22.9152
13.5584
21.9558
21.6376
19.2052
17.8932
15.0389
20.6008
13.7157
21.6391
20.008
11.2979
17.0963
16.0651
16.8285
23.3729
23.3323
20.6212
23.0158
17.8947
22.697
15.2299
15.3081
23.2167
24.8027
24.4947
19.0411
18.585
17.7061
20.1887
11.6579
15.9209
17.3632
15.5411
15.3829
14.1173
17.8083
12.4041
18.1419
15.1915
21.4862
18.6053
19.8135
19.4759
19.9335
16.9417
19.6471
21.5098
17.2336
17.4075
19.5849
15.688
12.5913
15.7619
14.8789
16.1255
15.8781
16.504
12.6694
17.4024
12.2393
17.749
18.0356
18.0807
18.8318
14.3818
14.9165
17.5138
14.5664
11.9043
14.3905
16.9699
13.2253
18.3477
14.47
15.1376
13.4294
13.8956
14.9607
12.9854
14.3023
12.4987
14.7612
15.567
14.6725
14.897
14.5198
14.061
19.4975
18.2624
14.2665
16.8657
11.2023
