# vtk DataFile Version 4.1
vtk output
ASCII
DATASET POLYDATA
POINTS 456 float
20000 45000 0
20000 35000 0
15000 30000 0
10842.8 26717.2 0
12921.4 28358.6 0
7435.24 32421.8 0
11469.6 26762.9 0
10123.2 22939.9 0
9202.61 30564.5 0
6343.93 29313.7 0
11114.3 24355 0
13067.2 21305.9 0
12933.7 22085.8 0
15879.8 20995.9 0
15485.9 21307.1 0
18748.1 21117.1 0
6960.07 29125.7 0
5277.37 27212.6 0
5960.27 27507.4 0
5948.44 24536 0
16464.6 21250.1 0
16993.5 19277 0
7621.43 30127.9 0
3514.78 31042.6 0
8672.4 31121.7 0
5368.02 32774 0
10420.5 23364.4 0
3828.76 24352.4 0
8443 23660.8 0
5764.44 22116 0
9036.26 23571.9 0
5836.5 16500.8 0
12024 23220.4 0
11846.4 15247.7 0
10837.3 18742.4 0
7938.06 14061.4 0
17163.8 19789.7 0
20439.2 14623.8 0
11341.9 16995.1 0
13075.1 10323.8 0
11861.8 14993.7 0
8169.9 11623.1 0
12225.8 13592.7 0
8579.72 9049.38 0
18146.4 18239.9 0
23154 13101.1 0
11132 12229.7 0
12962.7 8954.66 0
12267 10199.2 0
15483.3 6341.78 0
15452.3 7869.61 0
19967.4 6287.74 0
21651.7 14642.7 0
22885 6803.66 0
4582.42 31261.3 0
3807.78 32607.9 0
11546.1 19700.5 0
12351.5 18325.9 0
8080.38 20064.8 0
8357.82 19582 0
11031 19287.1 0
9233.61 18595 0
18062.9 18905.5 0
20567.7 18234.2 0
16653.1 20127.2 0
16063 16880.2 0
4005.89 31143.2 0
1540.09 29001.1 0
7407.21 18995.6 0
6083.61 19264.5 0
4239.7 23746.9 0
2500.07 23256.6 0
3717.81 23599.8 0
3739.78 21061.6 0
3266.15 30500.6 0
703.852 32041.8 0
15740.4 17439.3 0
14775 15350.9 0
7011.52 18082.4 0
7610.09 17284 0
1835.98 29435.6 0
324.755 29212.5 0
18708 16364.4 0
18337 15582.4 0
3738.93 21635.6 0
3776.09 20266.2 0
3024.39 23306 0
1113.31 22162.7 0
3761.97 20786.6 0
3030.21 19334.2 0
15318.5 15858.5 0
16243.8 13756 0
9878.64 15497.7 0
10057.3 14452.9 0
15857.1 14270.4 0
15265.9 13375.4 0
1615.39 22220.2 0
722.37 21061.6 0
15695.5 14746.8 0
17121.3 12924.3 0
21767.2 15324.1 0
22984.7 14703.2 0
15669.7 13720.4 0
15658.9 12068 0
23024.8 13914.9 0
23620.7 13838.5 0
8175.86 14621.7 0
6015.08 14010.5 0
6522.92 14360.7 0
4741.97 14388.2 0
15923.6 12511.6 0
16588.8 11291.8 0
3057.05 19872 0
556.197 17884.9 0
16336 11755.3 0
17453.2 10664 0
5249.71 14349.8 0
2898.64 14198.3 0
8630.47 12158.9 0
7420.53 11213.5 0
21659.6 11028.5 0
21269.4 10708.5 0
3386.55 14486.9 0
1282.5 15012.6 0
21374.7 11850.4 0
19639.7 9928.78 0
20653.5 10277.6 0
20644.6 9659.41 0
12531.4 9726.26 0
11549.2 8653.18 0
16806.9 7395.05 0
17538 8330.51 0
7880.31 11572.7 0
5746.25 9666.61 0
21687.4 9254.42 0
20708.6 8313.74 0
18847.3 7366.19 0
19434.6 7699.43 0
3945.5 14445.8 0
1131.78 11252.5 0
1832.58 11341.9 0
1529.98 10695.9 0
6114.1 10042.1 0
4258.09 8672.51 0
22568 8237.1 0
24983.2 8114.76 0
9444.28 9512.13 0
9832.93 6221.26 0
23499.2 7903.43 0
23823.7 7150.29 0
19799 6780.76 0
21286.1 6199.75 0
15189.8 6988.03 0
13499.6 5392.18 0
4513.23 9200.42 0
2517.87 8601.34 0
5121.56 9520.25 0
5622.88 6761.81 0
5868.31 7280.61 0
6929.12 6250.27 0
5312.07 8193.88 0
4188.74 6925.07 0
24445.9 7832.03 0
26551.3 6865.12 0
19361.2 7050.05 0
19224.6 4388.41 0
10263 6612.85 0
11199.3 4254.51 0
11222.5 4767.59 0
12084.7 4065.52 0
3220.38 8387.27 0
2176.33 6980.97 0
2373.65 7519.39 0
975.619 7311.09 0
19312.2 4994.83 0
19586.9 3586.83 0
10742.8 5690.22 0
8764.61 3874.49 0
6526.01 6641.8 0
5728.97 4783.37 0
25751.3 7232.55 0
25404.1 5038.47 0
19253.3 4240.43 0
18204.5 3126.22 0
20795.4 6095.61 0
22348.6 3671.39 0
25070.5 5484.25 0
24304 4166.97 0
9699.16 4067.85 0
9623.87 3081.15 0
5667.9 5415.41 0
4372.24 4385.77 0
10215.5 4254.79 0
10052.5 2417.81 0
11688.1 4388.47 0
13881.2 1776.6 0
4816.03 4667.85 0
4302.99 3826.49 0
5207.89 5011.73 0
2485.39 4566.73 0
13047 2323.67 0
12781.8 1491.66 0
4294.3 4656.24 0
3932.77 3330.72 0
12377.4 2851.01 0
11661.5 928.402 0
4070.15 3834.42 0
4128.96 2482.93 0
9815.48 2888.95 0
7951.94 1190.68 0
8033.94 1769.14 0
6115.03 1315.71 0
8584.21 1900.28 0
8528.62 546.236 0
7028.97 1128.2 0
6600.61 469.812 0
4081.11 2982.26 0
4001.41 1126.29 0
4025.32 1683.08 0
4161.2 647.051 0
4050.98 2280.7 0
1427.64 895.579 0
11957.3 26930.7 0
11904.9 26364.5 0
12046.9 27577.5 0
9636.18 27165 0
10163.9 26972.4 0
9454.39 26123.5 0
7426.81 29339.2 0
7493.24 28170.1 0
7164.99 31470.6 0
6735.51 31126.3 0
6245.49 26150.3 0
8027.14 25242.4 0
25000 30000 0
23793.6 24689.6 0
24445.1 27557.2 0
29091 24635.8 0
28274.7 25766.9 0
32220.3 27080.9 0
31257.5 27130.5 0
32952.4 29969.3 0
29620.2 25904.3 0
32133.1 24118.8 0
30356.5 24784.8 0
30033 21351.3 0
24080.5 25225.9 0
23841.7 19712.8 0
32848.1 29213 0
35476.2 30041.7 0
31772 24541.1 0
35010.5 25089.9 0
31257.4 24305.4 0
33252.9 21969.5 0
23961.1 22469.4 0
29489.2 17460.4 0
34530.6 24630.2 0
37828.6 22864.8 0
33165.1 22557.4 0
37614.6 20329.2 0
31982.3 23641.2 0
34124.4 17386.5 0
33481.8 19262.9 0
36012.8 14692.6 0
32912 20926.6 0
32259.2 14622.3 0
26950.4 18079.6 0
29898.8 11085.2 0
36634.9 20232.8 0
39197.8 15343.3 0
28186.4 13940.9 0
26723.4 10000.4 0
34818.4 16634.4 0
36701.4 11913.6 0
33931.6 17949.4 0
32246.8 11311.1 0
28382.4 18206.6 0
29090.5 18691.6 0
34801.4 29454.5 0
37226.7 27919 0
35520 24100.6 0
37073.7 25481.9 0
29068.6 17744 0
30542 17191.4 0
36789.8 28208.1 0
38783.1 27022.9 0
36269.1 28960.2 0
39177.4 29752.4 0
25931.4 18937.2 0
25436.8 15739.1 0
36029.1 21237.6 0
36927.4 21462.9 0
25245.9 16334.7 0
24331.1 15124.9 0
28329.4 16232.1 0
29615.8 15750 0
31797.7 16723.3 0
31460 16272.8 0
24758.8 15439.6 0
25099.1 14348.3 0
29103.3 15700.4 0
29990.8 14746.5 0
25010.7 14866.7 0
25901.6 13452.4 0
34454.5 17934.2 0
36324.8 17845.6 0
37336.9 22977.4 0
39370.6 21501.4 0
25195 14231.5 0
24609 13056.7 0
38591.2 21683.8 0
38887.8 19114.5 0
32043.3 13643.6 0
31595 13220.7 0
26665.7 12137.6 0
25297.2 11617.5 0
32961 14036.2 0
33075.1 12960.6 0
35070.1 13086.5 0
34662.6 11816.2 0
26337.4 10363.2 0
25844.2 9388.62 0
32349.1 11893.2 0
33370.4 10970.3 0
38832.8 15975.3 0
39610.2 14403.3 0
39285.9 14825.3 0
39562.4 13664.9 0
39281 14091.9 0
38559.6 12487.8 0
29529.1 11427 0
30560.2 8019.37 0
39030.8 13140.2 0
39709.4 12220.6 0
36197 11861.4 0
37230.3 10051.7 0
36819.9 10511.5 0
37240.9 9108.44 0
30105.5 8343.52 0
29820 6256.2 0
30154.5 6868.22 0
31495.8 5409.5 0
30851.7 5729 0
30728.2 4883.45 0
36959.8 9531.43 0
36766.2 7018.72 0
30586.8 6161.9 0
29168.2 4403.22 0
30135.9 7428.84 0
33165.1 4563.35 0
37097.9 7800.17 0
38651.8 6318.74 0
29713.3 4703.49 0
29515.7 2151.32 0
32696.4 4773.42 0
34140.7 3084.96 0
29575 2916.97 0
31527.5 2209.95 0
34114.6 3630.99 0
36523.5 2140.58 0
33512.5 3776.45 0
34169.9 1161.1 0
36179 2601.61 0
38734.3 1657.96 0
30111.4 26272.2 0
28637.8 30085.8 0
27096.3 27078 0
27948.5 27276.9 0
24020.8 23847.6 0
21361 23216.9 0
33590.4 29478.5 0
33824.7 29954.3 0
30587.9 23395.1 0
31460.2 22764.7 0
23381.3 20470.7 0
22663 19614 0
26318.6 18611.3 0
27232.9 19140.7 0
35947 24721.1 0
35573.7 25868.5 0
30326.7 21758.5 0
30289.1 19885.7 0
35888.5 29318.3 0
36587.2 29674.1 0
32448.9 21453.9 0
32055 20483 0
34341.1 21916.3 0
34405.4 21277.5 0
31478.4 17770.5 0
31102.8 17318.6 0
27456.3 16616.4 0
27410.6 16060.6 0
36974.1 23388.2 0
38249.1 23745.7 0
33647.4 18366.3 0
33026.2 17643.3 0
37764.6 23609.9 0
39279.7 23351.7 0
38619 20064.2 0
37709.6 19474.9 0
33692.2 16039.9 0
34185.9 15602 0
38973.3 20688.8 0
39486.9 20124.6 0
37821.6 17012.3 0
37733.6 16458.6 0
38286.8 16535.3 0
39603.4 17272.5 0
35884.4 15247.9 0
37260.7 13901.8 0
34862.2 12278.3 0
34603.8 10489.5 0
35105.4 11192.3 0
35570.5 10587.1 0
30159.3 9770.36 0
32260.3 9064.42 0
36874 11016 0
37378.8 10780.7 0
29845.2 8860.89 0
28050.2 6841.22 0
28475.7 7119.39 0
27518.3 5526.49 0
32428.1 5661.91 0
33932.8 5670.52 0
35559.7 2910.43 0
37114.6 4380.98 0
31022.8 2078.9 0
31956.6 933.883 0
28972.5 26025.2 0
29229.2 26532.2 0
24125.8 24389.3 0
24587.8 23483.2 0
28682.8 25201.3 0
27489.7 23718.5 0
32466.8 27956.9 0
33341.4 28056.8 0
24339.2 20343.7 0
23876.3 19174.3 0
32646.6 19400.6 0
32996.8 18871.2 0
38632.2 29626.8 0
39723.2 29982.9 0
38606.5 23598.1 0
39124.4 24318.5 0
38629.1 22204.1 0
39786.3 21783 0
38906.9 21228.6 0
39890.9 20919.8 0
24250.5 25747.3 0
24592 24454.3 0
24356.8 23936.2 0
25153.6 23409.2 0
28286.5 15544.7 0
28724 15154.3 0
28441.3 14384.2 0
28982.3 13691 0
LINES 139 417
2 0 1
2 1 2
2 1 234
2 2 4
2 4 8
2 4 224
2 6 10
2 8 22
2 8 24
2 10 26
2 10 32
2 12 14
2 14 20
2 20 64
2 22 54
2 24 230
2 26 30
2 28 29
2 28 70
2 30 28
2 30 58
2 32 12
2 32 56
2 34 38
2 34 92
2 36 62
2 38 33
2 38 40
2 40 42
2 40 118
2 42 39
2 42 46
2 44 82
2 44 100
2 46 48
2 46 146
2 48 50
2 48 128
2 50 130
2 50 152
2 52 104
2 52 124
2 54 66
2 56 60
2 58 68
2 60 34
2 62 44
2 64 36
2 66 23
2 68 78
2 70 27
2 78 31
2 82 37
2 92 106
2 100 52
2 104 45
2 106 35
2 118 41
2 120 134
2 124 120
2 128 47
2 130 136
2 134 144
2 136 164
2 144 53
2 146 43
2 150 51
2 152 49
2 164 150
2 222 6
2 224 222
2 230 25
2 234 236
2 236 366
2 236 448
2 238 428
2 242 244
2 244 252
2 246 430
2 250 256
2 252 250
2 252 260
2 254 436
2 256 280
2 258 386
2 260 258
2 260 384
2 262 304
2 262 394
2 264 262
2 264 438
2 266 276
2 266 390
2 268 259
2 268 404
2 270 314
2 270 330
2 272 318
2 272 408
2 274 261
2 274 400
2 276 282
2 280 392
2 282 255
2 288 376
2 290 268
2 294 452
2 296 265
2 304 272
2 306 257
2 312 322
2 314 320
2 316 312
2 318 334
2 320 271
2 322 275
2 324 269
2 330 267
2 334 273
2 366 238
2 368 254
2 376 266
2 384 264
2 386 290
2 388 296
2 390 294
2 392 306
2 394 274
2 400 316
2 404 406
2 406 324
2 408 263
2 428 242
2 430 368
2 436 288
2 438 388
2 448 246
2 452 454
2 454 270
POINT_DATA 456
SCALARS LAT float
LOOKUP_TABLE default
0
5.26316
8.98477
0
10.3787
0
11.611
0
12.6544
0
12.892
0
14.4228
0
15.8272
0
0
0
0
0
16.3432
0
13.5178
15.7985
13.0593
15.042
13.5286
17.1789
14.581
16.2084
14.2652
18.4042
13.6574
18.0934
16.1789
19.2878
17.2647
20.6039
17.1361
20.7639
18.2244
20.8587
18.9863
22.1059
18.2814
22.3436
19.9061
21.8808
21.1304
24.0651
23.2074
25.8991
21.0919
25.4413
15.2249
0
15.527
0
16.1784
0
15.8746
0
17.9284
0
16.9425
0
15.5346
0
16.8434
0
16.7937
0
0
0
0
0
0
0
17.3672
0
0
0
19.3118
0
0
0
0
0
0
0
0
0
17.9596
0
0
0
0
0
0
0
20.7282
0
0
0
21.9099
0
18.9675
0
0
0
0
0
0
0
0
0
0
0
20.4868
0
23.0266
0
0
0
22.5688
0
0
0
21.4156
0
23.9628
0
0
0
23.9605
0
25.0368
0
0
0
0
0
0
0
24.6686
0
21.5898
0
0
0
25.6249
0
23.6915
0
0
0
0
0
0
0
0
0
0
0
25.3544
0
0
0
0
0
0
0
0
0
0
0
0
0
0
0
0
0
0
0
0
0
0
0
0
0
0
0
0
0
0
0
0
0
0
0
0
0
0
0
0
0
0
0
0
0
0
0
0
0
0
0
0
0
0
0
0
0
11.3395
0
10.9959
0
0
0
0
0
13.8736
0
0
0
8.98477
0
10.3032
0
12.649
0
0
0
13.3874
0
14.0926
0
11.5499
0
0
0
14.9276
0
14.6297
0
13.0073
17.422
16.3803
18.3771
15.9915
18.7897
15.1472
18.6778
17.6192
20.4168
16.6937
20.2728
15.9628
20.2925
18.2716
21.2244
18.5275
20.9976
19.1963
22.2113
18.3647
22.2718
16.7194
0
0
0
16.9709
0
17.155
0
0
0
0
0
15.2618
0
17.654
0
0
0
17.2797
0
19.1406
0
0
0
0
0
0
0
18.4859
0
18.1116
0
0
0
0
0
21.0255
0
19.7691
0
20.5001
0
21.0683
0
20.7188
0
21.9607
0
20.8403
0
0
0
0
0
20.0275
0
0
0
21.9444
0
0
0
0
0
0
0
0
0
0
0
0
0
0
0
0
0
0
0
0
0
0
0
0
0
0
0
0
0
0
0
11.7212
0
12.2813
0
0
0
0
0
0
0
15.5282
0
0
0
0
0
0
0
16.3243
0
16.6965
0
18.5644
0
16.7776
0
17.8232
0
18.0991
0
0
0
0
0
19.3775
0
0
0
20.078
0
20.4287
0
20.1168
0
0
0
0
0
0
0
0
0
0
0
0
0
0
0
0
0
0
0
13.0406
0
11.9909
0
0
0
0
0
14.1437
0
17.5089
0
0
0
0
0
0
0
0
0
11.2613
0
0
0
17.6422
0
18.2584
0
