# vtk DataFile Version 4.1
vtk output
ASCII
DATASET POLYDATA
POINTS 66 float
100 9850 50 3250 9750 50 2614.9 10030.5 50 
3209.72 9764.17 50 5733.94 8480.08 50 7950 11850 50 
7150 6650 50 7088.23 7017.21 50 8150 6550 50 
7901.85 11839.3 50 7990.63 7897.09 50 7179.44 6709.9 50 
9550 7550 50 7978.23 6503.51 50 9267.9 12497.1 50 
7950 5450 50 9496.33 7623.28 50 10250 7450 50 
7948.34 5548.21 50 9637.13 12761 50 10450 12750 50 
10350 13450 50 9135.6 7860.98 50 9950 8250 50 
10116.5 7412.79 50 10750 6850 50 10750 12150 50 
10264.9 12866.4 50 10950 13150 50 9783.09 7979.27 50 
10750 7950 50 10475.2 7821.71 50 11150 7450 50 
9850 4650 50 10656.6 12935.4 50 11350 12650 50 
11050 6350 50 10316.2 13376.3 50 10950 13750 50 
9650 4050 50 10931.3 13102.9 50 11550 13350 50 
9832.78 4810.31 50 10450 4550 50 11051.8 7578.36 50 
10695.3 12118.1 50 11350 11950 50 11240.6 12820.1 50 
11950 12850 50 10989.8 6386.3 50 11650 6350 50 
9635.17 4212.41 50 10250 3950 50 10441.9 4556.47 50 
10950 4350 50 12350 7550 50 11891 12812.4 50 
12550 12750 50 2614.9 10030.5 50 7950 14950 50 
9859.35 4665.28 50 9950 4450 50 11911.7 7308.49 50 
12450 6950 50 12205.7 12864 50 12450 13050 50 

LINES 65 195
2 3 1 
2 0 2 
2 2 3 
2 3 4 
2 9 5 
2 11 6 
2 4 7 
2 13 8 
2 58 9 
2 4 10 
2 7 11 
2 16 12 
2 7 13 
2 9 14 
2 18 15 
2 22 16 
2 24 17 
2 11 18 
2 14 19 
2 27 20 
2 37 21 
2 10 22 
2 29 23 
2 16 24 
2 24 25 
2 45 26 
2 19 27 
2 40 28 
2 22 29 
2 31 30 
2 29 31 
2 44 32 
2 60 33 
2 27 34 
2 47 35 
2 49 36 
2 19 37 
2 37 38 
2 51 39 
2 34 40 
2 40 41 
2 13 42 
2 53 43 
2 31 44 
2 14 45 
2 45 46 
2 34 47 
2 56 48 
2 10 49 
2 49 50 
2 18 51 
2 51 52 
2 42 53 
2 53 54 
2 62 55 
2 47 56 
2 64 57 
2 2 58 
2 58 59 
2 42 60 
2 60 61 
2 44 62 
2 62 63 
2 56 64 
2 64 65 

CELL_DATA 65
SCALARS radius float
LOOKUP_TABLE default
92.9635 100 96.4176 92.9635 89.6332 83.3262 89.6332 83.3262 92.9635 
89.6332 86.4222 80.3411 86.4222 89.6332 80.3411 83.3262 77.463 83.3262 
86.4222 80.3411 80.3411 86.4222 80.3411 80.3411 77.463 83.3262 83.3262 
74.6879 83.3262 77.463 80.3411 74.6879 77.463 80.3411 74.6879 83.3262 
83.3262 80.3411 77.463 77.463 74.6879 83.3262 77.463 77.463 86.4222 
83.3262 77.463 72.0123 86.4222 83.3262 80.3411 77.463 80.3411 77.463 
72.0123 74.6879 69.4326 96.4176 92.9635 80.3411 77.463 74.6879 72.0123 
72.0123 69.4326 
