# vtk DataFile Version 4.1
vtk output
ASCII
DATASET POLYDATA
POINTS 76 float
100 9850 50 3250 9850 50 2627.54 10125.7 50 
4806.31 10624.4 50 5260.22 10179.9 50 5808.76 11298.9 50 
7997.78 12433.8 50 9050 7150 50 9150 12150 50 
8077.25 8044.47 50 8744.59 7183.14 50 7550 14650 50 
9016.67 7122.25 50 9750 6850 50 7642.18 14322.5 50 
8250 14950 50 9087.26 12125 50 9750 11850 50 
8559.17 6032 50 9377.39 12935.5 50 10350 7450 50 
10250 13450 50 9464.86 7848.54 50 9850 6050 50 
8034.87 14923 50 8350 15750 50 10850 12950 50 
9350 4750 50 8221.07 14962.1 50 8950 15150 50 
10270.8 7423.08 50 9639.53 6073.7 50 9697.06 11938.2 50 
8650 4650 50 10241.6 13381.7 50 10850 13650 50 
9365.87 4988.72 50 9950 4550 50 11350 7550 50 
10773.7 12861.1 50 11550 12750 50 10762.3 7031.23 50 
11250 6450 50 10769.7 13549.6 50 11450 13450 50 
11650 6950 50 9372.09 4773.75 50 9450 4050 50 
10550 5150 50 9884.35 4725.49 50 10550 4550 50 
9944.52 4555.5 50 10150 3950 50 11302.1 7653.76 50 
11950 7550 50 11550 11950 50 11379.5 12906.4 50 
12050 13150 50 11387.6 12138.9 50 12050 12250 50 
11222.9 6654.49 50 11850 6350 50 11636.5 6972.65 50 
12250 6950 50 11317.9 13573.8 50 11950 13750 50 
11885.3 13008.7 50 12550 12750 50 7916.56 14851.8 50 
7950 14950 50 9948.36 4551.65 50 9950 4450 50 
12205.2 6954.76 50 12450 6950 50 12262.1 12971.7 50 
12450 13050 50 
LINES 75 225
2 2 1 
2 0 2 
2 2 3 
2 3 4 
2 3 5 
2 5 6 
2 12 7 
2 16 8 
2 4 9 
2 9 10 
2 14 11 
2 10 12 
2 12 13 
2 5 14 
2 28 15 
2 6 16 
2 32 17 
2 4 18 
2 6 19 
2 30 20 
2 34 21 
2 9 22 
2 31 23 
2 68 24 
2 24 25 
2 39 26 
2 46 27 
2 24 28 
2 28 29 
2 22 30 
2 10 31 
2 16 32 
2 18 33 
2 19 34 
2 43 35 
2 18 36 
2 70 37 
2 53 38 
2 19 39 
2 56 40 
2 30 41 
2 60 42 
2 34 43 
2 64 44 
2 62 45 
2 36 46 
2 46 47 
2 31 48 
2 36 49 
2 49 50 
2 49 51 
2 51 52 
2 22 53 
2 53 54 
2 58 55 
2 39 56 
2 66 57 
2 32 58 
2 58 59 
2 41 60 
2 60 61 
2 41 62 
2 72 63 
2 43 64 
2 64 65 
2 56 66 
2 74 67 
2 14 68 
2 68 69 
2 51 70 
2 70 71 
2 62 72 
2 72 73 
2 66 74 
2 74 75 

CELL_DATA 75
SCALARS radius float
LOOKUP_TABLE default
96.4176 100 96.4176 92.9635 92.9635 89.6332 80.3411 83.3262 89.6332 
86.4222 86.4222 83.3262 80.3411 89.6332 77.463 86.4222 80.3411 89.6332 
86.4222 80.3411 80.3411 86.4222 80.3411 83.3262 80.3411 80.3411 80.3411 
80.3411 77.463 83.3262 83.3262 83.3262 86.4222 83.3262 77.463 86.4222 
74.6879 80.3411 83.3262 77.463 80.3411 74.6879 80.3411 74.6879 74.6879 
83.3262 80.3411 80.3411 83.3262 80.3411 80.3411 77.463 83.3262 80.3411 
77.463 80.3411 74.6879 80.3411 77.463 77.463 74.6879 77.463 72.0123 
77.463 74.6879 77.463 72.0123 86.4222 83.3262 77.463 74.6879 74.6879 
72.0123 74.6879 72.0123 
