# vtk DataFile Version 4.1
vtk output
ASCII
DATASET POLYDATA
POINTS 78 float
100 9850 50 3150 10650 50 2972.35 10435.5 50 
3800.73 9979.04 50 5360.32 10374.2 50 6920.37 8387.43 50 
7450 13350 50 7436.64 13165.4 50 9150 12250 50 
8057.15 6947.61 50 7137.63 12877.1 50 7550 14550 50 
9150 6450 50 9650 7150 50 9102.35 12249.3 50 
8542.74 7841.22 50 9450 8150 50 8428.86 6265.04 50 
9050 5650 50 7547.2 14483.4 50 7950 15150 50 
8813.15 11927.7 50 9303.04 8010.63 50 8350 5150 50 
9950 13550 50 9614.14 7190.02 50 10350 6850 50 
10000.5 12308.1 50 8997.54 5868.02 50 8448.58 5462.09 50 
8650 15450 50 10750 7450 50 9412.44 5602.75 50 
9650 4950 50 9979.51 13182.9 50 10650 13650 50 
10310.5 6930.81 50 11050 6750 50 10305.3 7644.99 50 
10850 8050 50 10350 5250 50 10732.5 7515.59 50 
9350 4250 50 9694.98 5099.1 50 10150 4550 50 
10786.9 7926.65 50 11009.4 6807.86 50 11750 6750 50 
9338.62 4389.15 50 9950 3850 50 10658.6 6778.46 50 
11050 6150 50 12050 7350 50 10136 4741.64 50 
10750 4450 50 12050 12450 50 12150 13350 50 
10359.7 4538.07 50 10550 3850 50 11903 12500.6 50 
12450 12850 50 11728 6729.41 50 12350 6650 50 
12050 7950 50 11978.3 7422.96 50 12550 7550 50 
12213.2 6765.76 50 12750 6950 50 12110 13278.1 50 
12750 13350 50 7889.58 14910 50 7950 14950 50 
9872.23 4831.56 50 9950 4450 50 12425.4 6881.83 50 
12450 6950 50 12307.8 12871.2 50 12450 13050 50 

LINES 77 231
2 2 1 
2 0 2 
2 2 3 
2 3 4 
2 3 5 
2 7 6 
2 10 7 
2 14 8 
2 5 9 
2 4 10 
2 19 11 
2 9 12 
2 25 13 
2 21 14 
2 5 15 
2 22 16 
2 9 17 
2 28 18 
2 10 19 
2 70 20 
2 4 21 
2 15 22 
2 29 23 
2 34 24 
2 15 25 
2 36 26 
2 21 27 
2 17 28 
2 17 29 
2 7 30 
2 41 31 
2 28 32 
2 43 33 
2 14 34 
2 34 35 
2 25 36 
2 46 37 
2 22 38 
2 45 39 
2 32 40 
2 38 41 
2 48 42 
2 32 43 
2 53 44 
2 38 45 
2 50 46 
2 61 47 
2 29 48 
2 48 49 
2 36 50 
2 50 51 
2 64 52 
2 72 53 
2 57 54 
2 59 55 
2 68 56 
2 53 57 
2 57 58 
2 27 59 
2 76 60 
2 46 61 
2 66 62 
2 45 63 
2 41 64 
2 64 65 
2 61 66 
2 74 67 
2 27 68 
2 68 69 
2 19 70 
2 70 71 
2 43 72 
2 72 73 
2 66 74 
2 74 75 
2 59 76 
2 76 77 

CELL_DATA 77
SCALARS radius float
LOOKUP_TABLE default
96.4176 100 96.4176 92.9635 92.9635 83.3262 86.4222 83.3262 89.6332 
89.6332 83.3262 86.4222 83.3262 86.4222 89.6332 83.3262 86.4222 80.3411 
86.4222 80.3411 89.6332 86.4222 80.3411 80.3411 86.4222 80.3411 86.4222 
83.3262 83.3262 83.3262 77.463 80.3411 74.6879 83.3262 80.3411 83.3262 
74.6879 83.3262 77.463 77.463 80.3411 77.463 77.463 69.4326 80.3411 
77.463 72.0123 80.3411 77.463 80.3411 77.463 74.6879 72.0123 66.9452 
80.3411 80.3411 69.4326 66.9452 83.3262 77.463 74.6879 69.4326 77.463 
77.463 74.6879 72.0123 66.9452 83.3262 80.3411 83.3262 80.3411 74.6879 
72.0123 69.4326 66.9452 80.3411 77.463 
