# vtk DataFile Version 4.1
vtk output
ASCII
DATASET POLYDATA
POINTS 62 float
100 9850 50 3150 9350 50 2853.97 9610.54 50 
3803.91 9615.06 50 6050 11650 50 4541.24 9305.17 50 
5909.79 11375.7 50 6051.28 11614.2 50 6805.82 7528.09 50 
7348.55 11931.7 50 9250 12650 50 7888.53 6266.49 50 
8654.86 12797.8 50 10050 13150 50 9212.62 7596.4 50 
8330.63 5503.19 50 9150 5150 50 10450 7250 50 
8350 15450 50 9959.91 12280.4 50 10550 6550 50 
8750 4650 50 9900.71 13238.1 50 10650 13550 50 
10750 11950 50 10348.9 7221.12 50 11050 6950 50 
11250 12550 50 10150 4550 50 10937.5 7114.45 50 
11650 7150 50 11163.4 12620 50 10467.4 6494.25 50 
11150 6250 50 11035.7 6357.95 50 11650 6550 50 
10123.6 4769.96 50 10650 4450 50 10713.4 12048.9 50 
11850 7750 50 10606.2 13534.2 50 11350 13850 50 
11572.7 12853.5 50 11950 13450 50 12050 12250 50 
11590 7110.62 50 12250 7050 50 12350 12750 50 
11544.3 6417.18 50 12150 6350 50 11871.8 13179.5 50 
12550 13350 50 12098 6962.25 50 12650 6650 50 
6051.28 11614.2 50 7950 14950 50 10108.5 4648.18 50 
9950 4450 50 12296.3 6876.23 50 12450 6950 50 
12104.4 12914.3 50 12450 13050 50 
LINES 61 183
2 2 1 
2 0 2 
2 2 3 
2 7 4 
2 3 5 
2 3 6 
2 6 7 
2 5 8 
2 6 9 
2 12 10 
2 8 11 
2 9 12 
2 22 13 
2 5 14 
2 11 15 
2 15 16 
2 25 17 
2 54 18 
2 9 19 
2 32 20 
2 15 21 
2 12 22 
2 40 23 
2 38 24 
2 14 25 
2 29 26 
2 31 27 
2 56 28 
2 25 29 
2 45 30 
2 19 31 
2 8 32 
2 34 33 
2 32 34 
2 48 35 
2 11 36 
2 36 37 
2 19 38 
2 14 39 
2 22 40 
2 40 41 
2 31 42 
2 50 43 
2 38 44 
2 29 45 
2 52 46 
2 60 47 
2 34 48 
2 48 49 
2 42 50 
2 50 51 
2 45 52 
2 58 53 
2 7 54 
2 54 55 
2 36 56 
2 56 57 
2 52 58 
2 58 59 
2 42 60 
2 60 61 

CELL_DATA 61
SCALARS radius float
LOOKUP_TABLE default
96.4176 100 96.4176 86.4222 92.9635 92.9635 89.6332 89.6332 89.6332 
83.3262 86.4222 86.4222 80.3411 89.6332 83.3262 80.3411 83.3262 83.3262 
86.4222 83.3262 80.3411 83.3262 77.463 80.3411 86.4222 80.3411 80.3411 
77.463 83.3262 77.463 83.3262 86.4222 80.3411 83.3262 77.463 83.3262 
80.3411 83.3262 86.4222 80.3411 77.463 80.3411 74.6879 80.3411 80.3411 
74.6879 74.6879 80.3411 77.463 77.463 74.6879 77.463 72.0123 86.4222 
83.3262 80.3411 77.463 74.6879 72.0123 77.463 74.6879 
