# vtk DataFile Version 4.1
vtk output
ASCII
DATASET POLYDATA
POINTS 62 float
100 9850 50 3250 9750 50 2868.5 9961.4 50 
3223.44 9759.81 50 5412.2 8840.86 50 5886.17 11395.7 50 
6561.57 12212.6 50 8450 7550 50 8150 6650 50 
9050 12850 50 8425.19 7606.68 50 9150 7150 50 
7476.89 6795.08 50 7916.56 6614.38 50 8550 5950 50 
8056.1 8026.28 50 7213.12 14014.5 50 9128.85 7183.96 50 
9950 7250 50 8543.3 6022.6 50 9250 5450 50 
7350 15150 50 8550 15250 50 9573.21 7118.32 50 
10250 6550 50 10100 12301.2 50 10650 12950 50 
10226.8 7662.71 50 10750 7150 50 8950 4750 50 
9163.32 5707.04 50 10173.4 6759.86 50 8903.92 5001.78 50 
10950 12150 50 10642 12770.4 50 11250 7650 50 
10250 4950 50 10706.7 7274.43 50 8968.5 4794.41 50 
10871.1 12220.1 50 11550 12450 50 11350 6450 50 
10050 4250 50 10172 4972.36 50 10650 4450 50 
11627.2 6844.3 50 12150 7150 50 11500.7 12376.4 50 
12150 12450 50 9650 3650 50 9974.34 4257.43 50 
10450 3750 50 12450 13050 50 12550 6650 50 
12082.2 12398.5 50 12650 12350 50 7929.47 14854.7 50 
7950 14950 50 9796.74 4503.88 50 9950 4450 50 
12254.1 6868.52 50 12450 6950 50 
LINES 61 183
2 3 1 
2 0 2 
2 2 3 
2 3 4 
2 2 5 
2 5 6 
2 10 7 
2 13 8 
2 6 9 
2 15 10 
2 17 11 
2 4 12 
2 12 13 
2 19 14 
2 4 15 
2 6 16 
2 10 17 
2 23 18 
2 13 19 
2 30 20 
2 16 21 
2 56 22 
2 17 23 
2 31 24 
2 5 25 
2 34 26 
2 15 27 
2 37 28 
2 38 29 
2 19 30 
2 23 31 
2 12 32 
2 39 33 
2 25 34 
2 27 35 
2 43 36 
2 27 37 
2 32 38 
2 25 39 
2 47 40 
2 31 41 
2 50 42 
2 30 43 
2 43 44 
2 37 45 
2 45 46 
2 39 47 
2 54 48 
2 38 49 
2 58 50 
2 50 51 
2 34 52 
2 60 53 
2 47 54 
2 54 55 
2 16 56 
2 56 57 
2 32 58 
2 58 59 
2 45 60 
2 60 61 

CELL_DATA 61
SCALARS radius float
LOOKUP_TABLE default
92.9635 100 96.4176 92.9635 96.4176 92.9635 83.3262 83.3262 89.6332 
86.4222 80.3411 89.6332 86.4222 80.3411 89.6332 89.6332 83.3262 77.463 
83.3262 77.463 86.4222 83.3262 80.3411 74.6879 92.9635 86.4222 86.4222 
80.3411 80.3411 80.3411 77.463 86.4222 86.4222 89.6332 83.3262 74.6879 
83.3262 83.3262 89.6332 83.3262 74.6879 77.463 77.463 74.6879 80.3411 
77.463 86.4222 80.3411 80.3411 80.3411 77.463 86.4222 74.6879 83.3262 
80.3411 86.4222 83.3262 83.3262 80.3411 77.463 74.6879 
