# vtk DataFile Version 4.1
vtk output
ASCII
DATASET POLYDATA
POINTS 64 float
100 9850 50 2850 10550 50 2658.8 10238.8 50 
3431.49 10076.3 50 5637.85 9005.82 50 5850 12050 50 
5923.28 11439.4 50 5850 7750 50 6337.75 8555.54 50 
6591.51 11788.5 50 7479.53 11889.5 50 8036.42 6872.61 50 
7750 14650 50 8767.61 7662.23 50 8417.65 6037.23 50 
8950 5350 50 9699.53 7186.89 50 10550 7050 50 
10055 12458.6 50 10150 6350 50 8250 5050 50 
8837.03 5352.28 50 9150 4750 50 10950 7650 50 
10650 13650 50 11250 12750 50 10445.8 7009.81 50 
11150 6750 50 9176.72 4858.84 50 9650 4350 50 
10350 5250 50 10504.7 13477.6 50 10829 7569.17 50 
9158.02 4782.65 50 8950 4250 50 11550 12150 50 
11216.4 12692.6 50 11950 12650 50 10913.7 7625.75 50 
11149 6756.35 50 11750 6550 50 9638.55 4400.83 50 
11850 13450 50 12150 7150 50 9650 3650 50 
10289.3 5265.41 50 10950 4750 50 11796.5 12779 50 
12450 13050 50 12150 7850 50 11725.7 6588.03 50 
12350 6450 50 11773.7 13508.7 50 12450 13650 50 
12041.1 7239.02 50 12650 7450 50 12318.7 7255.52 50 
12850 6950 50 6591.51 11788.5 50 7950 14950 50 
9598.48 4590.94 50 9950 4450 50 12145.2 7160.28 50 
12450 6950 50 
LINES 63 189
2 2 1 
2 0 2 
2 2 3 
2 3 4 
2 6 5 
2 3 6 
2 4 7 
2 4 8 
2 6 9 
2 9 10 
2 8 11 
2 58 12 
2 8 13 
2 11 14 
2 21 15 
2 13 16 
2 26 17 
2 10 18 
2 16 19 
2 14 20 
2 14 21 
2 33 22 
2 38 23 
2 31 24 
2 36 25 
2 16 26 
2 39 27 
2 21 28 
2 41 29 
2 45 30 
2 10 31 
2 13 32 
2 28 33 
2 33 34 
2 18 35 
2 18 36 
2 47 37 
2 32 38 
2 26 39 
2 50 40 
2 60 41 
2 52 42 
2 62 43 
2 41 44 
2 11 45 
2 45 46 
2 36 47 
2 47 48 
2 38 49 
2 39 50 
2 50 51 
2 31 52 
2 52 53 
2 32 54 
2 56 55 
2 54 56 
2 56 57 
2 9 58 
2 58 59 
2 28 60 
2 60 61 
2 54 62 
2 62 63 

CELL_DATA 63
SCALARS radius float
LOOKUP_TABLE default
96.4176 100 96.4176 92.9635 89.6332 92.9635 89.6332 89.6332 89.6332 
86.4222 86.4222 83.3262 86.4222 83.3262 77.463 83.3262 77.463 83.3262 
80.3411 80.3411 80.3411 72.0123 77.463 80.3411 77.463 80.3411 74.6879 
77.463 69.4326 80.3411 83.3262 83.3262 74.6879 72.0123 80.3411 80.3411 
74.6879 80.3411 77.463 72.0123 72.0123 77.463 74.6879 69.4326 83.3262 
80.3411 77.463 74.6879 77.463 74.6879 72.0123 80.3411 77.463 80.3411 
74.6879 77.463 74.6879 86.4222 83.3262 74.6879 72.0123 77.463 74.6879 

