# vtk DataFile Version 4.1
vtk output
ASCII
DATASET POLYDATA
POINTS 74 float
100 9850 50 3050 10550 50 2833.92 10257.7 50 
3569.8 10085.9 50 4771.18 10468.6 50 5245.21 9178.86 50 
7536.86 7275.34 50 7775.54 12174.8 50 8650 11850 50 
9150 7250 50 8469.94 12033.7 50 8241.01 8097.4 50 
9250 8150 50 9350 6550 50 9650 13150 50 
9095.12 8021.17 50 9850 7750 50 7704.69 14281.7 50 
8250 14950 50 8945.71 6572.21 50 9350 5750 50 
9120.23 7366.93 50 7350 15150 50 8350 5150 50 
9609.96 13072.6 50 9836.83 7787.08 50 10450 7650 50 
8370.83 5474.21 50 7973.52 14760.6 50 7950 15650 50 
9364.97 5807.33 50 9750 5250 50 10850 12250 50 
9637.99 13126.8 50 10150 13750 50 10400.7 7648.83 50 
11150 7450 50 9450 4450 50 10610.5 12370.2 50 
9668.44 5503.65 50 10350 5350 50 9771.88 5315.65 50 
10250 4650 50 10831 12287.7 50 11450 12150 50 
9445.68 4493.46 50 11650 13450 50 11071.4 7521.15 50 
11750 7650 50 11950 12650 50 11377.6 7489.98 50 
11650 6350 50 10247.3 4697.76 50 10650 4250 50 
11391.9 12194.1 50 11950 12150 50 10217.4 5299.46 50 
10850 4950 50 11684.7 12767 50 12250 13150 50 
10250 3550 50 12350 7450 50 11546.7 6513.25 50 
12250 6550 50 11919.9 12700.3 50 12550 12650 50 
7890.45 14742.1 50 7950 14950 50 9448.64 4724.12 50 
9950 4450 50 11989.1 7325.99 50 12450 6950 50 
12170.1 12996.9 50 12450 13050 50 
LINES 73 219
2 2 1 
2 0 2 
2 2 3 
2 3 4 
2 3 5 
2 5 6 
2 4 7 
2 10 8 
2 21 9 
2 7 10 
2 5 11 
2 15 12 
2 19 13 
2 33 14 
2 11 15 
2 25 16 
2 4 17 
2 28 18 
2 6 19 
2 30 20 
2 11 21 
2 17 22 
2 27 23 
2 7 24 
2 15 25 
2 35 26 
2 6 27 
2 66 28 
2 28 29 
2 19 30 
2 41 31 
2 43 32 
2 24 33 
2 33 34 
2 25 35 
2 47 36 
2 45 37 
2 10 38 
2 30 39 
2 56 40 
2 39 41 
2 52 42 
2 38 43 
2 54 44 
2 68 45 
2 24 46 
2 35 47 
2 50 48 
2 64 49 
2 47 50 
2 62 51 
2 41 52 
2 52 53 
2 43 54 
2 54 55 
2 39 56 
2 56 57 
2 38 58 
2 72 59 
2 45 60 
2 70 61 
2 21 62 
2 62 63 
2 58 64 
2 64 65 
2 17 66 
2 66 67 
2 27 68 
2 68 69 
2 50 70 
2 70 71 
2 58 72 
2 72 73 

CELL_DATA 73
SCALARS radius float
LOOKUP_TABLE default
96.4176 100 96.4176 92.9635 92.9635 89.6332 89.6332 83.3262 83.3262 
86.4222 89.6332 83.3262 83.3262 80.3411 86.4222 80.3411 89.6332 80.3411 
86.4222 80.3411 86.4222 86.4222 83.3262 86.4222 83.3262 77.463 86.4222 
83.3262 80.3411 83.3262 74.6879 77.463 83.3262 80.3411 80.3411 74.6879 
77.463 83.3262 80.3411 74.6879 77.463 72.0123 80.3411 74.6879 80.3411 
83.3262 77.463 72.0123 74.6879 74.6879 80.3411 74.6879 72.0123 77.463 
74.6879 77.463 74.6879 80.3411 74.6879 77.463 69.4326 83.3262 80.3411 
77.463 74.6879 86.4222 83.3262 83.3262 80.3411 72.0123 69.4326 77.463 
74.6879 
