# vtk DataFile Version 4.1
vtk output
ASCII
DATASET POLYDATA
POINTS 72 float
100 9850 50 2850 9150 50 2687.76 9399.82 50 
4458.41 9794.61 50 6003.66 9109.6 50 6542.38 11888.2 50 
7950 12350 50 7550 13450 50 7672.86 12251.2 50 
7350 6250 50 7434.57 6769.79 50 9050 6850 50 
7212.76 13185.5 50 7150 14250 50 8424.97 12474.6 50 
9350 13050 50 8237.93 7978.9 50 8242.29 6295.32 50 
8928.21 7767.87 50 9750 7250 50 7376.13 13907.1 50 
9750 12250 50 8550 5350 50 9043.43 6991.46 50 
9750 6450 50 9343.21 13023 50 9750 13650 50 
9550 5450 50 10550 7550 50 9732 12285.7 50 
9683.03 7247.72 50 10450 6650 50 8561.44 5384.46 50 
7650 15850 50 9386.21 5479.04 50 9650 4750 50 
10472.2 7560.46 50 11050 7150 50 9579.37 6470.58 50 
9250 4250 50 10197.5 7848.61 50 10433.9 6709.45 50 
11050 6350 50 10855.1 6560.56 50 11550 6750 50 
9649.59 4815.29 50 9950 4150 50 11550 7750 50 
10450 4550 50 11421.1 7720.92 50 11850 7250 50 
11950 12250 50 9212.29 4290.17 50 9550 3750 50 
11495.6 6689.38 50 12150 6750 50 9969.84 4304.12 50 
10450 3750 50 10488.4 4639.18 50 10850 4150 50 
11667 7569.84 50 12350 7550 50 12106.1 7419.52 50 
12650 7050 50 7674.67 14753.1 50 7950 14950 50 
9907.91 4482.91 50 9950 4450 50 12396.6 7090.08 50 
12450 6950 50 11202.8 12488.3 50 12450 13050 50 

LINES 71 213
2 2 1 
2 0 2 
2 2 3 
2 3 4 
2 3 5 
2 8 6 
2 12 7 
2 5 8 
2 10 9 
2 4 10 
2 23 11 
2 5 12 
2 20 13 
2 8 14 
2 25 15 
2 4 16 
2 10 17 
2 16 18 
2 30 19 
2 12 20 
2 29 21 
2 32 22 
2 16 23 
2 38 24 
2 14 25 
2 25 26 
2 34 27 
2 36 28 
2 14 29 
2 18 30 
2 41 31 
2 17 32 
2 64 33 
2 17 34 
2 45 35 
2 40 36 
2 36 37 
2 23 38 
2 52 39 
2 18 40 
2 30 41 
2 43 42 
2 41 43 
2 54 44 
2 34 45 
2 56 46 
2 49 47 
2 58 48 
2 40 49 
2 60 50 
2 70 51 
2 32 52 
2 52 53 
2 43 54 
2 54 55 
2 66 56 
2 56 57 
2 38 58 
2 58 59 
2 49 60 
2 62 61 
2 60 62 
2 68 63 
2 20 64 
2 64 65 
2 45 66 
2 66 67 
2 62 68 
2 68 69 
2 29 70 
2 70 71 

CELL_DATA 71
SCALARS radius float
LOOKUP_TABLE default
96.4176 100 96.4176 92.9635 92.9635 86.4222 86.4222 89.6332 86.4222 
89.6332 83.3262 89.6332 83.3262 86.4222 80.3411 89.6332 86.4222 86.4222 
80.3411 86.4222 80.3411 80.3411 86.4222 80.3411 83.3262 80.3411 80.3411 
77.463 83.3262 83.3262 77.463 83.3262 80.3411 83.3262 77.463 80.3411 
77.463 83.3262 77.463 83.3262 80.3411 74.6879 77.463 72.0123 80.3411 
72.0123 77.463 77.463 80.3411 74.6879 77.463 80.3411 77.463 74.6879 
72.0123 74.6879 72.0123 80.3411 77.463 77.463 72.0123 74.6879 69.4326 
83.3262 80.3411 77.463 74.6879 72.0123 69.4326 80.3411 77.463 
