# vtk DataFile Version 4.1
vtk output
ASCII
DATASET POLYDATA
POINTS 76 float
100 9850 50 3150 10650 50 2841.09 10390.5 50 
3825.72 10357.4 50 4928.29 10393 50 6527.94 7996.37 50 
6928.28 7650.23 50 8750 6950 50 8050 6050 50 
8358.53 6968.75 50 7150 14550 50 8693.67 6916.06 50 
8989.39 12563.5 50 8010.69 6053.3 50 8550 5350 50 
9535.94 12525.8 50 10250 12950 50 9550 5850 50 
8545.42 5491.06 50 10350 6550 50 10250 11850 50 
9788.26 7508.59 50 10550 7850 50 9955.83 12663.7 50 
10750 12450 50 10850 7150 50 9353.77 5871.4 50 
9850 5150 50 10350 13650 50 10373 12643 50 
10950 13050 50 10446.2 7684.75 50 11050 7650 50 
10314 6587.71 50 9532.22 5834.63 50 10725.7 12786.4 50 
9842.9 5183.14 50 10250 4650 50 10957 7603.38 50 
11550 7250 50 10674 12447.5 50 11150 11950 50 
10937.6 12978.7 50 11550 13350 50 11450 6350 50 
11022.1 7636.01 50 11550 7950 50 9550 3850 50 
12050 12650 50 10650 5250 50 10140.1 4695.95 50 
10250 3950 50 11067.4 12138.1 50 11750 12050 50 
11412.4 7415.68 50 12050 7550 50 11552.8 7305.75 50 
12150 6950 50 10217 4663.78 50 10850 4550 50 
11473 13173.5 50 12150 13250 50 10337.2 4308.05 50 
10750 3950 50 11736.6 13274.8 50 12050 13750 50 
11437.7 6371.94 50 12050 6250 50 4928.29 10393 50 
7950 14950 50 9967.99 4821.96 50 9950 4450 50 
12102.8 7053.17 50 12450 6950 50 12068.6 13203.9 50 
12450 13050 50 
LINES 75 225
2 2 1 
2 0 2 
2 2 3 
2 3 4 
2 3 5 
2 5 6 
2 11 7 
2 13 8 
2 6 9 
2 68 10 
2 9 11 
2 4 12 
2 6 13 
2 18 14 
2 12 15 
2 23 16 
2 34 17 
2 13 18 
2 33 19 
2 15 20 
2 5 21 
2 31 22 
2 15 23 
2 40 24 
2 21 25 
2 9 26 
2 36 27 
2 12 28 
2 23 29 
2 42 30 
2 21 31 
2 45 32 
2 11 33 
2 26 34 
2 29 35 
2 26 36 
2 58 37 
2 31 38 
2 56 39 
2 29 40 
2 52 41 
2 35 42 
2 60 43 
2 66 44 
2 38 45 
2 45 46 
2 18 47 
2 35 48 
2 34 49 
2 70 50 
2 62 51 
2 40 52 
2 52 53 
2 38 54 
2 54 55 
2 54 56 
2 72 57 
2 50 58 
2 58 59 
2 42 60 
2 74 61 
2 50 62 
2 62 63 
2 60 64 
2 64 65 
2 33 66 
2 66 67 
2 4 68 
2 68 69 
2 36 70 
2 70 71 
2 56 72 
2 72 73 
2 64 74 
2 74 75 

CELL_DATA 75
SCALARS radius float
LOOKUP_TABLE default
96.4176 100 96.4176 92.9635 92.9635 89.6332 80.3411 83.3262 86.4222 
86.4222 83.3262 89.6332 86.4222 80.3411 86.4222 80.3411 77.463 83.3262 
77.463 83.3262 89.6332 83.3262 83.3262 74.6879 86.4222 83.3262 77.463 
86.4222 80.3411 72.0123 86.4222 77.463 80.3411 80.3411 77.463 80.3411 
69.4326 83.3262 74.6879 77.463 72.0123 74.6879 69.4326 74.6879 80.3411 
77.463 80.3411 74.6879 77.463 74.6879 69.4326 74.6879 72.0123 80.3411 
77.463 77.463 72.0123 72.0123 69.4326 72.0123 64.547 72.0123 69.4326 
69.4326 66.9452 77.463 74.6879 89.6332 86.4222 77.463 74.6879 74.6879 
72.0123 66.9452 64.547 
