# vtk DataFile Version 4.1
vtk output
ASCII
DATASET POLYDATA
POINTS 84 float
100 9850 50 3250 9850 50 2811.98 10187.8 50 
3229.65 9883.26 50 5398.72 8761.19 50 6124.55 11112.8 50 
6863.22 12216 50 6750 13450 50 7734.79 7675.78 50 
8388.47 12255.3 50 8950 13050 50 8750 6550 50 
7615.5 13435.4 50 7950 5750 50 7903.97 6074.76 50 
6802.95 13417.2 50 6850 14250 50 7850 14850 50 
9206.62 12362.6 50 10050 12650 50 9750 8050 50 
8698.98 6890.02 50 9403.11 7778.88 50 8750 14650 50 
7986.21 5805.65 50 8350 5150 50 9950 11850 50 
9864.29 12670.4 50 10024.4 12634 50 10650 12450 50 
9569.67 6686.81 50 8349.78 5285.03 50 9050 4850 50 
10750 7250 50 10373 12613.9 50 10950 12950 50 
9750 4950 50 10050 5950 50 9905.76 12014.2 50 
10650 11850 50 10950 13550 50 11150 6650 50 
10628.9 12506.5 50 11350 12350 50 10571.2 7401.86 50 
11350 7650 50 8853.91 4856.01 50 10887.2 12815.5 50 
11550 12950 50 9738.44 5124.37 50 10350 4750 50 
10994.8 7439.45 50 11650 7050 50 9331.25 4387.92 50 
9850 4050 50 11061.1 6596.83 50 11650 6450 50 
11287.2 12428.1 50 9810.5 4185.17 50 10450 4050 50 
11505.9 12935 50 12150 13050 50 11338.1 7607.15 50 
11950 7750 50 11555.9 7233.78 50 12250 7150 50 
9350 3750 50 10322.3 4841.8 50 10950 4650 50 
11582.4 6536.73 50 12250 6550 50 12550 12650 50 
12083.9 13097.2 50 12650 13350 50 12167.9 7092.81 50 
12750 6850 50 7884.82 14707.8 50 7950 14950 50 
9771.18 4982.88 50 9950 4450 50 12430.7 6969.13 50 
12450 6950 50 12288 13158.8 50 12450 13050 50 

LINES 83 249
2 3 1 
2 0 2 
2 2 3 
2 3 4 
2 2 5 
2 5 6 
2 15 7 
2 4 8 
2 5 9 
2 9 10 
2 21 11 
2 6 12 
2 24 13 
2 4 14 
2 6 15 
2 15 16 
2 76 17 
2 9 18 
2 28 19 
2 22 20 
2 8 21 
2 8 22 
2 12 23 
2 14 24 
2 31 25 
2 38 26 
2 18 27 
2 27 28 
2 42 29 
2 21 30 
2 24 31 
2 46 32 
2 44 33 
2 28 34 
2 47 35 
2 78 36 
2 30 37 
2 18 38 
2 38 39 
2 27 40 
2 55 41 
2 34 42 
2 57 43 
2 22 44 
2 62 45 
2 31 46 
2 34 47 
2 60 48 
2 14 49 
2 67 50 
2 44 51 
2 64 52 
2 46 53 
2 58 54 
2 30 55 
2 69 56 
2 42 57 
2 53 58 
2 58 59 
2 47 60 
2 72 61 
2 51 62 
2 62 63 
2 51 64 
2 74 65 
2 53 66 
2 49 67 
2 67 68 
2 55 69 
2 69 70 
2 57 71 
2 60 72 
2 82 73 
2 64 74 
2 80 75 
2 12 76 
2 76 77 
2 49 78 
2 78 79 
2 74 80 
2 80 81 
2 72 82 
2 82 83 

CELL_DATA 83
SCALARS radius float
LOOKUP_TABLE default
92.9635 100 96.4176 92.9635 96.4176 92.9635 86.4222 89.6332 92.9635 
89.6332 83.3262 89.6332 83.3262 89.6332 89.6332 86.4222 83.3262 89.6332 
80.3411 83.3262 86.4222 86.4222 86.4222 86.4222 80.3411 83.3262 86.4222 
83.3262 74.6879 83.3262 83.3262 77.463 80.3411 80.3411 74.6879 80.3411 
80.3411 86.4222 83.3262 83.3262 77.463 77.463 72.0123 83.3262 74.6879 
80.3411 77.463 72.0123 86.4222 80.3411 80.3411 74.6879 77.463 72.0123 
80.3411 74.6879 74.6879 74.6879 72.0123 74.6879 69.4326 77.463 74.6879 
77.463 72.0123 74.6879 83.3262 80.3411 77.463 74.6879 72.0123 72.0123 
66.9452 74.6879 69.4326 86.4222 83.3262 83.3262 80.3411 72.0123 69.4326 
69.4326 66.9452 
