# vtk DataFile Version 4.1
vtk output
ASCII
DATASET POLYDATA
POINTS 160 float
100 9850 50 150 10650 50 100 9850 50 
2050 10150 50 75 10010 50 50 10050 50 
685 9940 50 1450 9050 50 1575.05 9919.7 50 
2850 9150 50 2687.76 9399.82 50 4150 9450 50 
3881.2 9576.45 50 5050 10450 50 4458.41 9794.61 50 
5750 9450 50 5030.27 10357 50 6050 11050 50 
4949.21 9663.66 50 5250 8450 50 5503.66 9401.87 50 
6450 8450 50 5569.52 10892 50 5750 12050 50 
5930.95 11095.4 50 6950 11950 50 6003.66 9109.6 50 
7250 9150 50 6385.49 8488.09 50 6850 7450 50 
6883.78 9009.86 50 7750 8250 50 6542.38 11888.2 50 
6950 12950 50 6914.72 11979.4 50 7950 12350 50 
6916.2 7753.24 50 7750 7050 50 6987.56 12750.2 50 
7550 13450 50 7696.81 8325.16 50 8550 7650 50 
7740.48 12375.9 50 8450 13250 50 7672.86 12251.2 50 
8850 12250 50 7268.76 7296.65 50 7350 6250 50 
7434.57 6769.79 50 8250 6150 50 7566.02 13394.1 50 
8250 14050 50 8416.98 7642.05 50 9050 6850 50 
7212.76 13185.5 50 7150 14250 50 8424.97 12474.6 50 
9350 13050 50 8237.93 7978.9 50 9350 7950 50 
8242.29 6295.32 50 8950 5950 50 8928.21 7767.87 50 
9750 7250 50 7376.13 13907.1 50 7850 14850 50 
8793.24 12346.6 50 9750 12250 50 7442.36 6389.51 50 
7750 5650 50 8247.69 6193.6 50 8550 5350 50 
9203.99 12791.8 50 10150 12950 50 8143.13 14036.1 50 
8650 14750 50 9043.43 6991.46 50 9750 6450 50 
9334.12 7914.83 50 10050 8050 50 9343.21 13023 50 
9750 13650 50 8891.53 5920.5 50 9550 5450 50 
7876.27 14791.7 50 8350 15450 50 9869.44 7932.69 50 
10550 7550 50 7479.51 14333.9 50 7150 15250 50 
9732 12285.7 50 10550 12250 50 9683.03 7247.72 50 
10450 6650 50 8561.44 5384.46 50 8850 4750 50 
10094 12849.5 50 10850 12850 50 7448.16 14978.3 50 
7650 15850 50 10133.2 12919.8 50 10550 13550 50 
9386.21 5479.04 50 9650 4750 50 10472.2 7560.46 50 
11050 7150 50 9579.37 6470.58 50 10150 5750 50 
9980.87 5764.62 50 10250 5150 50 10687.6 12737.8 50 
11350 12450 50 8869.66 4813.03 50 9250 4250 50 
10468.8 13265 50 11250 13450 50 10197.5 7848.61 50 
11050 8050 50 10433.9 6709.45 50 11050 6350 50 
11054.2 12666.8 50 11650 12950 50 10855.1 6560.56 50 
11550 6750 50 9649.59 4815.29 50 9950 4150 50 
10917.2 7901.56 50 11550 7750 50 10219.9 5178.68 50 
10450 4550 50 11421.1 7720.92 50 11850 7250 50 
10474.8 12180.3 50 11450 11950 50 11299.2 12161.2 50 
11950 12250 50 9212.29 4290.17 50 9550 3750 50 
11230.5 13461.6 50 11850 13650 50 11495.6 6689.38 50 
12150 6750 50 9969.84 4304.12 50 10450 3750 50 
11830.3 12296 50 12350 12750 50 10488.4 4639.18 50 
10850 4150 50 11667 7569.84 50 12350 7550 50 
11791.8 13561.7 50 12350 13550 50 12106.1 7419.52 50 
12650 7050 50 11744.3 6712.42 50 12150 6150 50 
12323.7 12716.7 50 12850 13150 50 12078 6694.85 50 
12650 6450 50 
LINES 159 477
2 4 1 
2 0 2 
2 8 3 
2 2 4 
2 4 5 
2 2 6 
2 6 7 
2 6 8 
2 10 9 
2 8 10 
2 12 11 
2 10 12 
2 16 13 
2 12 14 
2 20 15 
2 14 16 
2 24 17 
2 14 18 
2 18 19 
2 18 20 
2 28 21 
2 16 22 
2 22 23 
2 22 24 
2 34 25 
2 20 26 
2 30 27 
2 26 28 
2 36 29 
2 26 30 
2 40 31 
2 24 32 
2 38 33 
2 32 34 
2 42 35 
2 28 36 
2 46 37 
2 32 38 
2 50 39 
2 30 40 
2 52 41 
2 44 42 
2 42 43 
2 34 44 
2 66 45 
2 36 46 
2 68 47 
2 46 48 
2 70 49 
2 54 50 
2 74 51 
2 58 52 
2 76 53 
2 38 54 
2 64 55 
2 44 56 
2 80 57 
2 40 58 
2 78 59 
2 48 60 
2 82 61 
2 58 62 
2 92 63 
2 54 64 
2 84 65 
2 56 66 
2 90 67 
2 48 68 
2 68 69 
2 60 70 
2 94 71 
2 56 72 
2 100 73 
2 50 74 
2 74 75 
2 52 76 
2 106 77 
2 62 78 
2 86 79 
2 72 80 
2 80 81 
2 60 82 
2 102 83 
2 88 84 
2 84 85 
2 78 86 
2 104 87 
2 64 88 
2 98 89 
2 66 90 
2 132 91 
2 62 92 
2 118 93 
2 70 94 
2 112 95 
2 72 96 
2 110 97 
2 88 98 
2 98 99 
2 96 100 
2 114 101 
2 82 102 
2 124 103 
2 116 104 
2 104 105 
2 76 106 
2 108 107 
2 106 108 
2 128 109 
2 96 110 
2 120 111 
2 94 112 
2 136 113 
2 100 114 
2 138 115 
2 86 116 
2 126 117 
2 92 118 
2 122 119 
2 110 120 
2 120 121 
2 118 122 
2 140 123 
2 102 124 
2 142 125 
2 116 126 
2 130 127 
2 108 128 
2 146 129 
2 126 130 
2 148 131 
2 90 132 
2 134 133 
2 132 134 
2 144 135 
2 112 136 
2 136 137 
2 114 138 
2 150 139 
2 122 140 
2 158 141 
2 124 142 
2 142 143 
2 134 144 
2 156 145 
2 128 146 
2 146 147 
2 130 148 
2 152 149 
2 138 150 
2 150 151 
2 148 152 
2 152 153 
2 140 154 
2 154 155 
2 144 156 
2 156 157 
2 154 158 
2 158 159 

CELL_DATA 159
SCALARS radius float
LOOKUP_TABLE default
92.9635 100 89.6332 96.4176 92.9635 96.4176 92.9635 92.9635 86.4222 
89.6332 83.3262 86.4222 77.463 83.3262 74.6879 80.3411 72.0123 80.3411 
77.463 77.463 69.4326 77.463 74.6879 74.6879 66.9452 74.6879 69.4326 
72.0123 66.9452 72.0123 66.9452 72.0123 66.9452 69.4326 62.2346 69.4326 
64.547 69.4326 62.2346 69.4326 62.2346 64.547 62.2346 66.9452 60.0051 
66.9452 60.0051 64.547 57.8555 64.547 60.0051 64.547 60.0051 66.9452 
62.2346 64.547 57.8555 66.9452 60.0051 62.2346 57.8555 64.547 60.0051 
64.547 57.8555 62.2346 57.8555 62.2346 60.0051 60.0051 55.7829 62.2346 
55.7829 62.2346 60.0051 62.2346 57.8555 62.2346 57.8555 60.0051 57.8555 
60.0051 55.7829 60.0051 57.8555 60.0051 53.7845 62.2346 57.8555 60.0051 
55.7829 62.2346 57.8555 57.8555 53.7845 60.0051 55.7829 60.0051 57.8555 
57.8555 53.7845 57.8555 53.7845 55.7829 53.7845 60.0051 55.7829 57.8555 
53.7845 57.8555 53.7845 55.7829 51.8578 55.7829 51.8578 57.8555 53.7845 
60.0051 55.7829 55.7829 53.7845 57.8555 53.7845 55.7829 51.8578 55.7829 
51.8578 55.7829 51.8578 53.7845 50 57.8555 53.7845 55.7829 51.8578 
53.7845 51.8578 53.7845 50 55.7829 50 53.7845 51.8578 53.7845 
50 53.7845 51.8578 51.8578 48.2088 51.8578 50 50 48.2088 
53.7845 51.8578 51.8578 50 51.8578 50 
