# vtk DataFile Version 4.1
vtk output
ASCII
DATASET POLYDATA
POINTS 160 float
100 9850 50 150 10650 50 100 9850 50 
2050 10050 50 65 9920 50 50 9950 50 
829.5 9792 50 1550 9050 50 1869.8 10114.8 50 
3150 10650 50 2972.35 10435.5 50 4350 10150 50 
3800.73 9979.04 50 4750 9050 50 4295.81 10160.5 50 
5650 10750 50 4661.7 9300.84 50 5950 9050 50 
5360.32 10374.2 50 6550 10250 50 5609.44 10728.4 50 
6250 11750 50 5147.9 9058 50 5650 8050 50 
5901.43 9052.16 50 7150 9050 50 6150.44 10443.4 50 
7350 11250 50 6375.89 9051.34 50 7050 7750 50 
6222.99 11750 50 6750 12650 50 6607.23 12163 50 
7650 12450 50 7064.51 7833.39 50 7550 7050 50 
6920.37 8387.43 50 8150 8050 50 6786.61 12538.6 50 
7450 13350 50 7623.73 12465.1 50 8450 12750 50 
7568.96 7370.03 50 8450 6850 50 7342.11 11168.4 50 
8350 11650 50 8031.04 7964.85 50 8950 7550 50 
7544.15 7061.61 50 7450 6150 50 7436.64 13165.4 50 
8350 13850 50 8251.47 11663.9 50 9150 12250 50 
8057.15 6947.61 50 8350 5950 50 7137.63 12877.1 50 
6850 13950 50 8315.49 12804 50 9150 13350 50 
7071.68 13572.6 50 7550 14550 50 8410.5 6828.16 50 
9150 6450 50 8925.45 7537.56 50 9650 7150 50 
9102.35 12249.3 50 9750 12750 50 8542.74 7841.22 50 
9450 8150 50 8012.66 13800.2 50 8450 14650 50 
8428.86 6265.04 50 9050 5650 50 7547.2 14483.4 50 
7950 15150 50 8813.15 11927.7 50 9650 11750 50 
9303.04 8010.63 50 10150 7750 50 9416.31 11975.3 50 
10250 12250 50 8383.91 5973.47 50 8350 5150 50 
9603.14 12726.8 50 9950 13550 50 9614.14 7190.02 50 
10350 6850 50 10000.5 12308.1 50 10550 12850 50 
8997.54 5868.02 50 9750 5550 50 8448.58 5462.09 50 
8950 4850 50 7311.16 14258 50 7050 15150 50 
8366.05 14602.1 50 8650 15450 50 10114.7 7728.55 50 
10750 7450 50 7315.36 14889.8 50 7550 15750 50 
9412.44 5602.75 50 9650 4950 50 10246.7 12256.3 50 
10850 12150 50 9979.51 13182.9 50 10650 13650 50 
10310.5 6930.81 50 11050 6750 50 10455.7 12646.3 50 
11250 12750 50 10305.3 7644.99 50 10850 8050 50 
9715.86 5526.46 50 10350 5250 50 10732.5 7515.59 50 
11450 7350 50 8901.55 4877.87 50 9350 4250 50 
9694.98 5099.1 50 10150 4550 50 10776.7 12220.5 50 
11450 12250 50 10577.8 13435.1 50 11350 13550 50 
11135.8 12800.8 50 11750 13050 50 10786.9 7926.65 50 
11450 7950 50 11009.4 6807.86 50 11750 6750 50 
9338.62 4389.15 50 9950 3850 50 10658.6 6778.46 50 
11050 6150 50 11388.4 7402.99 50 12050 7350 50 
10136 4741.64 50 10750 4450 50 11402.5 12296.6 50 
12050 12450 50 11690.8 13083.8 50 12150 13350 50 
10359.7 4538.07 50 10550 3850 50 11903 12500.6 50 
12450 12850 50 11030.2 6451.66 50 11650 6150 50 
11728 6729.41 50 12350 6650 50 11405.8 7942.53 50 
12050 7950 50 11978.3 7422.96 50 12550 7550 50 
12213.2 6765.76 50 12750 6950 50 12110 13278.1 50 
12750 13350 50 
LINES 159 477
2 4 1 
2 0 2 
2 8 3 
2 2 4 
2 4 5 
2 2 6 
2 6 7 
2 6 8 
2 10 9 
2 8 10 
2 14 11 
2 10 12 
2 16 13 
2 12 14 
2 20 15 
2 12 16 
2 24 17 
2 14 18 
2 26 19 
2 18 20 
2 30 21 
2 16 22 
2 22 23 
2 22 24 
2 28 25 
2 18 26 
2 44 27 
2 24 28 
2 34 29 
2 20 30 
2 38 31 
2 30 32 
2 40 33 
2 36 34 
2 48 35 
2 28 36 
2 46 37 
2 32 38 
2 50 39 
2 32 40 
2 58 41 
2 34 42 
2 62 43 
2 26 44 
2 52 45 
2 36 46 
2 64 47 
2 42 48 
2 48 49 
2 56 50 
2 70 51 
2 44 52 
2 66 53 
2 42 54 
2 82 55 
2 38 56 
2 60 57 
2 40 58 
2 58 59 
2 56 60 
2 74 61 
2 54 62 
2 62 63 
2 68 64 
2 86 65 
2 76 66 
2 84 67 
2 46 68 
2 78 69 
2 50 70 
2 96 71 
2 54 72 
2 90 73 
2 94 74 
2 74 75 
2 52 76 
2 80 77 
2 68 78 
2 98 79 
2 76 80 
2 104 81 
2 72 82 
2 92 83 
2 66 84 
2 106 85 
2 64 86 
2 108 87 
2 80 88 
2 110 89 
2 72 90 
2 114 91 
2 82 92 
2 118 93 
2 60 94 
2 100 95 
2 70 96 
2 96 97 
2 78 98 
2 116 99 
2 94 100 
2 100 101 
2 90 102 
2 120 103 
2 88 104 
2 122 105 
2 84 106 
2 124 107 
2 86 108 
2 130 109 
2 88 110 
2 126 111 
2 98 112 
2 128 113 
2 102 114 
2 114 115 
2 112 116 
2 136 117 
2 92 118 
2 132 119 
2 102 120 
2 138 121 
2 104 122 
2 140 123 
2 106 124 
2 124 125 
2 110 126 
2 142 127 
2 112 128 
2 152 129 
2 134 130 
2 150 131 
2 118 132 
2 132 133 
2 108 134 
2 148 135 
2 116 136 
2 154 137 
2 120 138 
2 144 139 
2 122 140 
2 146 141 
2 126 142 
2 158 143 
2 138 144 
2 144 145 
2 140 146 
2 146 147 
2 134 148 
2 148 149 
2 130 150 
2 156 151 
2 128 152 
2 152 153 
2 136 154 
2 154 155 
2 150 156 
2 156 157 
2 142 158 
2 158 159 

CELL_DATA 159
SCALARS radius float
LOOKUP_TABLE default
92.9635 100 89.6332 96.4176 92.9635 96.4176 92.9635 92.9635 86.4222 
89.6332 80.3411 86.4222 80.3411 83.3262 74.6879 83.3262 74.6879 80.3411 
74.6879 77.463 72.0123 80.3411 77.463 77.463 72.0123 77.463 72.0123 
74.6879 66.9452 74.6879 66.9452 72.0123 66.9452 69.4326 62.2346 72.0123 
66.9452 69.4326 62.2346 69.4326 64.547 66.9452 60.0051 74.6879 69.4326 
69.4326 62.2346 64.547 62.2346 64.547 60.0051 72.0123 64.547 64.547 
57.8555 66.9452 62.2346 66.9452 64.547 64.547 57.8555 62.2346 60.0051 
64.547 60.0051 66.9452 62.2346 66.9452 62.2346 62.2346 57.8555 62.2346 
57.8555 60.0051 57.8555 69.4326 64.547 64.547 60.0051 66.9452 60.0051 
60.0051 55.7829 64.547 60.0051 62.2346 57.8555 64.547 60.0051 60.0051 
53.7845 57.8555 53.7845 62.2346 57.8555 60.0051 57.8555 62.2346 55.7829 
60.0051 57.8555 57.8555 53.7845 62.2346 57.8555 62.2346 57.8555 60.0051 
53.7845 62.2346 57.8555 60.0051 55.7829 55.7829 53.7845 57.8555 53.7845 
55.7829 51.8578 55.7829 51.8578 60.0051 55.7829 60.0051 57.8555 60.0051 
55.7829 57.8555 53.7845 55.7829 51.8578 53.7845 51.8578 57.8555 53.7845 
55.7829 51.8578 53.7845 50 57.8555 53.7845 57.8555 53.7845 51.8578 
50 55.7829 53.7845 55.7829 53.7845 53.7845 50 55.7829 53.7845 
53.7845 51.8578 51.8578 50 55.7829 53.7845 
