# vtk DataFile Version 4.1
vtk output
ASCII
DATASET POLYDATA
POINTS 160 float
100 9850 50 50 9250 50 100 9850 50 
2050 10250 50 65 9780 50 50 9750 50 
843.5 9860 50 1650 9150 50 1892.25 10088.7 50 
3250 9850 50 2627.54 10125.7 50 3750 10950 50 
3628.94 10699.4 50 5050 10750 50 4806.31 10624.4 50 
6050 9950 50 5260.22 10179.9 50 5650 8750 50 
4976.89 10712.3 50 5850 11550 50 5871.58 9904.45 50 
6750 9050 50 5996.47 9936.34 50 6950 10750 50 
5808.76 11298.9 50 6950 11850 50 5746.09 9069.95 50 
6550 7850 50 6735.18 9059.07 50 7450 8350 50 
5837.63 11474.7 50 6150 12550 50 6752.8 11897.7 50 
7550 12650 50 6581.06 7946.79 50 7350 7150 50 
6890.84 11864.3 50 7950 11550 50 7445.26 8408.9 50 
8250 7750 50 7333.21 12284.5 50 8450 12350 50 
7355.94 7292.97 50 8250 6750 50 6218.04 12429.9 50 
6750 13350 50 6746.37 13157.6 50 7750 13750 50 
7997.78 12433.8 50 8650 13150 50 7695.68 7086.64 50 
7650 6150 50 8216.48 7792.85 50 9050 7150 50 
8428.93 12334.2 50 9150 12150 50 8077.25 8044.47 50 
9150 8050 50 8053.64 6768.76 50 8550 5850 50 
8744.59 7183.14 50 9150 6350 50 7290.44 13621.3 50 
7550 14650 50 7701.15 13774.9 50 8550 14250 50 
8547.72 12885.3 50 9550 13050 50 8974.72 7936.23 50 
9750 7650 50 9016.67 7122.25 50 9750 6850 50 
7642.18 14322.5 50 8250 14950 50 9087.26 12125 50 
9750 11850 50 8559.17 6032 50 9150 5450 50 
9377.39 12935.5 50 10250 12550 50 9731.93 7662.7 50 
10350 7450 50 8552.75 5904.6 50 8250 5150 50 
7611.01 14595 50 7650 15450 50 9546.16 13038.5 50 
10250 13450 50 9464.86 7848.54 50 10150 8150 50 
9183.84 6599.26 50 9850 6050 50 9711.34 6853.12 50 
10450 6550 50 8034.87 14923 50 8350 15750 50 
9999.14 12847.1 50 10850 12950 50 8969.67 5486.8 50 
9350 4750 50 8221.07 14962.1 50 8950 15150 50 
10270.8 7423.08 50 10950 7050 50 9639.53 6073.7 50 
10050 5350 50 9697.06 11938.2 50 10650 11950 50 
8507.32 5372.21 50 8650 4650 50 10063 8040.61 50 
10850 7950 50 10485.1 12058.2 50 11150 12350 50 
10241.6 13381.7 50 10850 13650 50 9365.87 4988.72 50 
9950 4550 50 10675.2 7874.24 50 11350 7550 50 
10773.7 12861.1 50 11550 12750 50 10762.3 7031.23 50 
11250 6450 50 10769.7 13549.6 50 11450 13450 50 
10893.7 7044.37 50 11650 6950 50 9372.09 4773.75 50 
9450 4050 50 10058.7 5525.58 50 10550 5150 50 
9884.35 4725.49 50 10550 4550 50 9944.52 4555.5 50 
10150 3950 50 11302.1 7653.76 50 11950 7550 50 
10920.1 12168.5 50 11550 11950 50 11379.5 12906.4 50 
12050 13150 50 11387.6 12138.9 50 12050 12250 50 
11222.9 6654.49 50 11850 6350 50 11636.5 6972.65 50 
12250 6950 50 9530.84 4199.5 50 9850 3550 50 
10345 4527.42 50 10750 3950 50 11317.9 13573.8 50 
11950 13750 50 11885.3 13008.7 50 12550 12750 50 
11837.2 13623.5 50 12450 13550 50 11910.7 7555.2 50 
12550 7450 50 
LINES 159 477
2 4 1 
2 0 2 
2 8 3 
2 2 4 
2 4 5 
2 2 6 
2 6 7 
2 6 8 
2 10 9 
2 8 10 
2 12 11 
2 10 12 
2 18 13 
2 12 14 
2 22 15 
2 14 16 
2 26 17 
2 14 18 
2 30 19 
2 16 20 
2 28 21 
2 20 22 
2 22 23 
2 18 24 
2 36 25 
2 16 26 
2 34 27 
2 20 28 
2 38 29 
2 24 30 
2 44 31 
2 24 32 
2 40 33 
2 26 34 
2 42 35 
2 32 36 
2 36 37 
2 28 38 
2 52 39 
2 32 40 
2 54 41 
2 34 42 
2 58 43 
2 30 44 
2 46 45 
2 44 46 
2 64 47 
2 40 48 
2 66 49 
2 42 50 
2 50 51 
2 56 52 
2 70 53 
2 48 54 
2 74 55 
2 38 56 
2 68 57 
2 50 58 
2 82 59 
2 52 60 
2 90 61 
2 46 62 
2 84 63 
2 62 64 
2 64 65 
2 48 66 
2 86 67 
2 56 68 
2 80 69 
2 60 70 
2 92 71 
2 62 72 
2 100 73 
2 54 74 
2 106 75 
2 58 76 
2 98 77 
2 66 78 
2 96 79 
2 88 80 
2 102 81 
2 76 82 
2 108 83 
2 72 84 
2 84 85 
2 78 86 
2 114 87 
2 68 88 
2 110 89 
2 60 90 
2 104 91 
2 70 92 
2 92 93 
2 72 94 
2 94 95 
2 78 96 
2 120 97 
2 76 98 
2 128 99 
2 94 100 
2 100 101 
2 80 102 
2 126 103 
2 90 104 
2 130 105 
2 74 106 
2 112 107 
2 82 108 
2 108 109 
2 88 110 
2 118 111 
2 106 112 
2 138 113 
2 86 114 
2 124 115 
2 98 116 
2 134 117 
2 110 118 
2 136 119 
2 96 120 
2 140 121 
2 102 122 
2 144 123 
2 114 124 
2 152 125 
2 122 126 
2 146 127 
2 116 128 
2 148 129 
2 104 130 
2 130 131 
2 116 132 
2 150 133 
2 132 134 
2 134 135 
2 118 136 
2 158 137 
2 112 138 
2 142 139 
2 120 140 
2 154 141 
2 138 142 
2 142 143 
2 122 144 
2 144 145 
2 126 146 
2 146 147 
2 128 148 
2 148 149 
2 132 150 
2 150 151 
2 124 152 
2 156 153 
2 140 154 
2 154 155 
2 152 156 
2 156 157 
2 136 158 
2 158 159 

CELL_DATA 159
SCALARS radius float
LOOKUP_TABLE default
92.9635 100 89.6332 96.4176 92.9635 96.4176 92.9635 92.9635 86.4222 
89.6332 83.3262 86.4222 77.463 83.3262 72.0123 80.3411 74.6879 80.3411 
72.0123 77.463 72.0123 74.6879 72.0123 77.463 69.4326 77.463 72.0123 
74.6879 69.4326 74.6879 69.4326 74.6879 69.4326 74.6879 69.4326 72.0123 
69.4326 72.0123 64.547 72.0123 64.547 72.0123 64.547 72.0123 66.9452 
69.4326 62.2346 69.4326 64.547 69.4326 66.9452 66.9452 60.0051 66.9452 
62.2346 69.4326 64.547 66.9452 60.0051 64.547 60.0051 66.9452 60.0051 
64.547 62.2346 66.9452 60.0051 66.9452 60.0051 62.2346 57.8555 64.547 
57.8555 64.547 60.0051 64.547 60.0051 64.547 60.0051 62.2346 57.8555 
62.2346 57.8555 62.2346 60.0051 62.2346 57.8555 64.547 60.0051 62.2346 
57.8555 60.0051 57.8555 62.2346 60.0051 62.2346 57.8555 62.2346 55.7829 
60.0051 57.8555 60.0051 53.7845 60.0051 55.7829 62.2346 57.8555 60.0051 
57.8555 62.2346 57.8555 60.0051 55.7829 60.0051 55.7829 60.0051 53.7845 
60.0051 55.7829 60.0051 55.7829 57.8555 53.7845 57.8555 53.7845 55.7829 
51.8578 57.8555 53.7845 57.8555 55.7829 57.8555 53.7845 55.7829 53.7845 
57.8555 53.7845 57.8555 53.7845 57.8555 53.7845 55.7829 53.7845 55.7829 
53.7845 53.7845 51.8578 55.7829 53.7845 55.7829 53.7845 55.7829 51.8578 
55.7829 53.7845 53.7845 51.8578 55.7829 53.7845 
