# vtk DataFile Version 4.1
vtk output
ASCII
DATASET POLYDATA
POINTS 160 float
100 9850 50 150 10650 50 100 9850 50 
2050 10250 50 65 9920 50 50 9950 50 
1058 9778 50 1850 9250 50 1870.8 10028.8 50 
3250 9850 50 2811.98 10187.8 50 4050 10750 50 
3229.65 9883.26 50 4450 9050 50 3989.83 10626.1 50 
5250 10950 50 4948.94 10724.6 50 6250 10150 50 
4367.49 9176.64 50 5550 8550 50 5226.38 10887 50 
6350 11450 50 5398.72 8761.19 50 6750 8850 50 
6124.55 11112.8 50 7150 11050 50 5504.62 8613.36 50 
6150 7650 50 6323.06 11445 50 6850 12450 50 
6497.15 8714.02 50 7550 8050 50 6793.06 11203 50 
7750 11950 50 6171.85 7867.34 50 7150 7050 50 
6863.22 12216 50 7650 13050 50 7381.09 8038.49 50 
8150 7250 50 7744.33 11854.7 50 8550 12250 50 
7111.24 7078.16 50 7850 6450 50 6853.97 12379.8 50 
6750 13450 50 7335.29 12968.4 50 7650 13950 50 
7734.79 7675.78 50 8850 7950 50 8388.47 12255.3 50 
8950 13050 50 8118.7 7258.38 50 8750 6550 50 
8426.7 7650.38 50 9250 7350 50 7615.5 13435.4 50 
8550 13850 50 8501.54 12251.6 50 9350 12250 50 
7582.5 6505.26 50 7950 5750 50 7903.97 6074.76 50 
8750 5750 50 6802.95 13417.2 50 6850 14250 50 
7665.92 13895.9 50 7850 14850 50 8938.31 12907.7 50 
9550 13450 50 9206.62 12362.6 50 10050 12650 50 
8793.98 7835.16 50 9750 8050 50 8698.98 6890.02 50 
9650 6550 50 9403.11 7778.88 50 10150 7450 50 
8325.68 13850.1 50 8750 14650 50 8742.95 5771.94 50 
9450 5550 50 7986.21 5805.65 50 8350 5150 50 
9349.4 12260.5 50 9950 11850 50 6890.94 14207.5 50 
7050 15050 50 7931.1 14712.7 50 8350 15450 50 
9864.29 12670.4 50 10350 13350 50 10024.4 12634 50 
10650 12450 50 9569.67 6686.81 50 10450 6650 50 
8349.78 5285.03 50 9050 4850 50 7126.38 14881 50 
7550 15650 50 10138.7 7472.93 50 10750 7250 50 
9698.84 7933.42 50 10450 8050 50 10373 12613.9 50 
10950 12950 50 9301.1 5525.92 50 9750 4950 50 
9625.9 6591.04 50 10050 5950 50 9905.76 12014.2 50 
10650 11850 50 10362.6 13188.5 50 10950 13550 50 
10434.7 6658.83 50 11150 6650 50 9998.29 5987.13 50 
10350 5350 50 10628.9 12506.5 50 11350 12350 50 
10571.2 7401.86 50 11350 7650 50 8853.91 4856.01 50 
9350 4250 50 10887.2 12815.5 50 11550 12950 50 
9738.44 5124.37 50 10350 4750 50 10994.8 7439.45 50 
11650 7050 50 9331.25 4387.92 50 9850 4050 50 
10883 13405.4 50 11550 13550 50 11061.1 6596.83 50 
11650 6450 50 11287.2 12428.1 50 11950 12450 50 
9810.5 4185.17 50 10450 4050 50 11505.9 12935 50 
12150 13050 50 11338.1 7607.15 50 11950 7750 50 
11555.9 7233.78 50 12250 7150 50 9338.94 4261.37 50 
9350 3750 50 10322.3 4841.8 50 10950 4650 50 
11582.4 6536.73 50 12250 6550 50 11905.9 12499 50 
12550 12650 50 11504.6 13559.7 50 12150 13750 50 
12083.9 13097.2 50 12650 13350 50 12167.9 7092.81 50 
12750 6850 50 
LINES 159 477
2 4 1 
2 0 2 
2 8 3 
2 2 4 
2 4 5 
2 2 6 
2 6 7 
2 6 8 
2 12 9 
2 8 10 
2 14 11 
2 10 12 
2 18 13 
2 10 14 
2 20 15 
2 14 16 
2 16 17 
2 12 18 
2 26 19 
2 16 20 
2 28 21 
2 18 22 
2 30 23 
2 20 24 
2 32 25 
2 22 26 
2 34 27 
2 24 28 
2 44 29 
2 22 30 
2 38 31 
2 24 32 
2 40 33 
2 26 34 
2 42 35 
2 28 36 
2 46 37 
2 30 38 
2 52 39 
2 32 40 
2 58 41 
2 34 42 
2 60 43 
2 36 44 
2 64 45 
2 36 46 
2 66 47 
2 38 48 
2 72 49 
2 40 50 
2 68 51 
2 48 52 
2 74 53 
2 48 54 
2 54 55 
2 46 56 
2 78 57 
2 50 58 
2 84 59 
2 42 60 
2 82 61 
2 60 62 
2 80 63 
2 44 64 
2 86 65 
2 56 66 
2 88 67 
2 50 68 
2 68 69 
2 58 70 
2 92 71 
2 54 72 
2 102 73 
2 52 74 
2 108 75 
2 72 76 
2 100 77 
2 56 78 
2 78 79 
2 62 80 
2 106 81 
2 62 82 
2 96 83 
2 70 84 
2 110 85 
2 64 86 
2 98 87 
2 66 88 
2 88 89 
2 70 90 
2 112 91 
2 90 92 
2 118 93 
2 74 94 
2 114 95 
2 82 96 
2 122 97 
2 86 98 
2 98 99 
2 76 100 
2 120 101 
2 76 102 
2 102 103 
2 92 104 
2 124 105 
2 80 106 
2 126 107 
2 94 108 
2 116 109 
2 84 110 
2 110 111 
2 90 112 
2 132 113 
2 94 114 
2 134 115 
2 108 116 
2 116 117 
2 104 118 
2 136 119 
2 100 120 
2 142 121 
2 96 122 
2 146 123 
2 104 124 
2 140 125 
2 106 126 
2 148 127 
2 120 128 
2 144 129 
2 122 130 
2 138 131 
2 112 132 
2 154 133 
2 114 134 
2 150 135 
2 118 136 
2 152 137 
2 130 138 
2 138 139 
2 124 140 
2 156 141 
2 128 142 
2 142 143 
2 128 144 
2 158 145 
2 130 146 
2 146 147 
2 126 148 
2 148 149 
2 134 150 
2 150 151 
2 136 152 
2 152 153 
2 132 154 
2 154 155 
2 140 156 
2 156 157 
2 144 158 
2 158 159 

CELL_DATA 159
SCALARS radius float
LOOKUP_TABLE default
92.9635 100 89.6332 96.4176 92.9635 96.4176 92.9635 92.9635 83.3262 
89.6332 83.3262 86.4222 80.3411 86.4222 77.463 83.3262 80.3411 83.3262 
74.6879 80.3411 72.0123 80.3411 74.6879 77.463 72.0123 77.463 72.0123 
74.6879 66.9452 77.463 72.0123 74.6879 69.4326 74.6879 69.4326 72.0123 
66.9452 74.6879 66.9452 72.0123 64.547 72.0123 66.9452 69.4326 64.547 
69.4326 62.2346 72.0123 64.547 69.4326 64.547 69.4326 64.547 69.4326 
66.9452 66.9452 62.2346 66.9452 60.0051 69.4326 62.2346 66.9452 62.2346 
66.9452 62.2346 64.547 60.0051 66.9452 64.547 64.547 57.8555 66.9452 
60.0051 66.9452 60.0051 64.547 60.0051 64.547 62.2346 64.547 60.0051 
64.547 60.0051 62.2346 57.8555 64.547 60.0051 62.2346 60.0051 62.2346 
57.8555 60.0051 53.7845 64.547 60.0051 62.2346 57.8555 62.2346 60.0051 
62.2346 57.8555 62.2346 60.0051 57.8555 53.7845 62.2346 57.8555 62.2346 
57.8555 60.0051 57.8555 60.0051 55.7829 62.2346 57.8555 60.0051 57.8555 
55.7829 51.8578 60.0051 53.7845 60.0051 53.7845 55.7829 51.8578 60.0051 
55.7829 57.8555 53.7845 57.8555 53.7845 57.8555 53.7845 60.0051 55.7829 
53.7845 50 55.7829 53.7845 53.7845 50 55.7829 53.7845 55.7829 
51.8578 55.7829 53.7845 57.8555 55.7829 57.8555 55.7829 51.8578 50 
55.7829 53.7845 51.8578 50 53.7845 51.8578 
