# vtk DataFile Version 4.1
vtk output
ASCII
DATASET POLYDATA
POINTS 160 float
100 9850 50 50 9250 50 100 9850 50 
2050 10250 50 65 9780 50 50 9750 50 
685 9970 50 1450 9050 50 1840 9998 50 
3250 9750 50 2614.9 10030.5 50 3850 10850 50 
3209.72 9764.17 50 4550 9150 50 4349.89 9507.67 50 
5750 9550 50 5091.94 9696.41 50 6150 10750 50 
3762.77 10727.8 50 4950 11350 50 4559.94 9220.41 50 
5350 8350 50 5192.27 8738.28 50 6650 8450 50 
4906.09 11346.9 50 6150 12050 50 5755.12 11635.7 50 
7150 11250 50 6106.2 11899.8 50 7050 12250 50 
5733.94 8480.08 50 6250 7450 50 6354.1 8336.94 50 
7350 7550 50 6629.42 8397.29 50 7750 8550 50 
6816.05 11572.3 50 7950 11850 50 6554.66 12197.4 50 
6950 13150 50 6923.38 12307.2 50 7950 12850 50 
6295.58 7638.03 50 7150 6650 50 7259.64 7864.77 50 
8450 7550 50 6987.86 12909 50 7650 13650 50 
7088.23 7017.21 50 8150 6550 50 7901.85 11839.3 50 
8750 12050 50 7873.48 12704.3 50 8850 12950 50 
7634.12 13468.9 50 8350 13850 50 7990.63 7897.09 50 
8850 8250 50 8373.22 7559.48 50 9050 6750 50 
7179.44 6709.9 50 7550 5950 50 7645.24 13595.7 50 
7250 14450 50 8634.74 12077.7 50 9550 12450 50 
8509.72 7972.02 50 9550 7550 50 7978.23 6503.51 50 
8750 5850 50 7581.19 13987.9 50 7950 14750 50 
8571.39 13019.7 50 9250 13550 50 9267.9 12497.1 50 
9850 13150 50 8198.71 13845.1 50 8650 14550 50 
9003.29 7073.79 50 9850 6750 50 7580.89 6021.16 50 
7950 5450 50 8665.29 6139.4 50 9550 5950 50 
9496.33 7623.28 50 10250 7450 50 9490.13 12418 50 
10150 12050 50 7948.34 5548.21 50 8650 5050 50 
7721.41 14506.3 50 7450 15350 50 9637.13 12761 50 
10450 12750 50 9084.8 5948.6 50 9450 5250 50 
7925.99 14748.7 50 8350 15350 50 9845.49 13055.9 50 
10350 13450 50 9135.6 7860.98 50 9950 8250 50 
10116.5 7412.79 50 10750 6850 50 10054.1 12225.2 50 
10750 12150 50 8621.6 5057.57 50 9150 4650 50 
10264.9 12866.4 50 10950 13150 50 9783.09 7979.27 50 
10750 7950 50 9361.75 5620.28 50 10150 5350 50 
10475.2 7821.71 50 11150 7450 50 9475.11 5295.6 50 
9850 4650 50 9747.05 6713.61 50 10450 6250 50 
10656.6 12935.4 50 11350 12650 50 10664.6 7075.11 50 
11350 6850 50 10336.8 6463.45 50 11050 6350 50 
10316.2 13376.3 50 10950 13750 50 9078.64 4645.03 50 
9650 4050 50 10931.3 13102.9 50 11550 13350 50 
9832.78 4810.31 50 10450 4550 50 11051.8 7578.36 50 
11750 7650 50 10695.3 12118.1 50 11350 11950 50 
11240.6 12820.1 50 11950 12850 50 11243.2 12037.4 50 
11850 12250 50 10989.8 6386.3 50 11650 6350 50 
11435.9 7529.46 50 12050 7050 50 9635.17 4212.41 50 
10250 3950 50 10937.9 13688.3 50 11450 13850 50 
10093.8 5324.49 50 10850 4950 50 11520 13298.9 50 
12150 13450 50 10441.9 4556.47 50 10950 4350 50 
11698.9 7584.17 50 12350 7550 50 11891 12812.4 50 
12550 12750 50 
LINES 159 477
2 4 1 
2 0 2 
2 8 3 
2 2 4 
2 4 5 
2 2 6 
2 6 7 
2 6 8 
2 12 9 
2 8 10 
2 18 11 
2 10 12 
2 20 13 
2 12 14 
2 16 15 
2 14 16 
2 16 17 
2 10 18 
2 24 19 
2 14 20 
2 22 21 
2 20 22 
2 34 23 
2 18 24 
2 28 25 
2 24 26 
2 36 27 
2 26 28 
2 40 29 
2 22 30 
2 42 31 
2 30 32 
2 44 33 
2 32 34 
2 34 35 
2 26 36 
2 50 37 
2 28 38 
2 46 39 
2 38 40 
2 52 41 
2 30 42 
2 60 43 
2 32 44 
2 58 45 
2 38 46 
2 62 47 
2 42 48 
2 68 49 
2 36 50 
2 64 51 
2 40 52 
2 72 53 
2 46 54 
2 76 55 
2 44 56 
2 66 57 
2 56 58 
2 78 59 
2 48 60 
2 80 61 
2 54 62 
2 70 63 
2 50 64 
2 86 65 
2 56 66 
2 84 67 
2 48 68 
2 82 69 
2 62 70 
2 96 71 
2 52 72 
2 72 73 
2 64 74 
2 98 75 
2 54 76 
2 76 77 
2 58 78 
2 118 79 
2 60 80 
2 88 81 
2 68 82 
2 94 83 
2 100 84 
2 102 85 
2 74 86 
2 104 87 
2 80 88 
2 106 89 
2 70 90 
2 90 91 
2 74 92 
2 108 93 
2 82 94 
2 116 95 
2 90 96 
2 96 97 
2 92 98 
2 126 99 
2 66 100 
2 110 101 
2 84 102 
2 122 103 
2 86 104 
2 136 105 
2 88 106 
2 128 107 
2 92 108 
2 130 109 
2 100 110 
2 114 111 
2 94 112 
2 150 113 
2 110 114 
2 134 115 
2 112 116 
2 132 117 
2 78 118 
2 124 119 
2 108 120 
2 138 121 
2 102 122 
2 122 123 
2 118 124 
2 142 125 
2 98 126 
2 148 127 
2 106 128 
2 146 129 
2 120 130 
2 152 131 
2 116 132 
2 154 133 
2 114 134 
2 156 135 
2 104 136 
2 140 137 
2 120 138 
2 158 139 
2 136 140 
2 140 141 
2 124 142 
2 142 143 
2 134 144 
2 144 145 
2 128 146 
2 146 147 
2 126 148 
2 148 149 
2 112 150 
2 150 151 
2 130 152 
2 152 153 
2 132 154 
2 154 155 
2 144 156 
2 156 157 
2 138 158 
2 158 159 

CELL_DATA 159
SCALARS radius float
LOOKUP_TABLE default
92.9635 100 89.6332 96.4176 92.9635 96.4176 92.9635 92.9635 83.3262 
89.6332 83.3262 86.4222 77.463 83.3262 77.463 80.3411 77.463 86.4222 
80.3411 80.3411 74.6879 77.463 66.9452 83.3262 74.6879 80.3411 74.6879 
77.463 69.4326 74.6879 69.4326 72.0123 66.9452 69.4326 66.9452 77.463 
72.0123 74.6879 69.4326 72.0123 66.9452 72.0123 64.547 69.4326 62.2346 
72.0123 64.547 69.4326 64.547 74.6879 69.4326 69.4326 64.547 69.4326 
64.547 66.9452 62.2346 64.547 60.0051 66.9452 62.2346 66.9452 62.2346 
72.0123 64.547 64.547 57.8555 66.9452 62.2346 64.547 57.8555 66.9452 
64.547 69.4326 62.2346 66.9452 64.547 62.2346 57.8555 64.547 60.0051 
64.547 60.0051 60.0051 55.7829 66.9452 62.2346 62.2346 57.8555 62.2346 
60.0051 66.9452 62.2346 62.2346 55.7829 60.0051 57.8555 64.547 60.0051 
62.2346 57.8555 57.8555 53.7845 64.547 60.0051 60.0051 55.7829 64.547 
57.8555 60.0051 55.7829 60.0051 55.7829 57.8555 53.7845 57.8555 53.7845 
60.0051 55.7829 62.2346 57.8555 55.7829 53.7845 57.8555 53.7845 62.2346 
57.8555 57.8555 53.7845 60.0051 55.7829 55.7829 51.8578 55.7829 50 
62.2346 57.8555 60.0051 55.7829 60.0051 57.8555 55.7829 53.7845 53.7845 
51.8578 55.7829 53.7845 60.0051 57.8555 57.8555 55.7829 57.8555 55.7829 
53.7845 51.8578 51.8578 50 57.8555 55.7829 
