# vtk DataFile Version 4.1
vtk output
ASCII
DATASET POLYDATA
POINTS 1300 float
16125 47875 54078.1 15325.8 46314.9 52799.4 14982.9 45645.6 52250.8 
18311.3 44216 47965.6 19307.5 43920.9 47371.7 22804.1 41601.1 46677.4 
12372.8 42252.8 43912.1 17603.4 42470.4 42614 9424.35 38724 43661.5 
8430.53 37012.6 43911 16686.8 41698.5 39172 27828.6 37064.1 44040.1 
7827.56 35072.5 44639.5 6896.14 36097.3 38313 16294.4 41429.7 37175.5 
6236.55 32484.3 42258.5 29020.5 35852.3 41501.9 29457 35482.3 40442.3 
19804.7 40881.6 35534.7 5900.77 28639.8 43494 5240.98 33614.2 35005.1 
15699.7 41288.4 31444 5870.15 27422.9 44144.2 30027.8 31832.5 43893.1 
30763.1 31331.8 43627 30272.4 35154.6 37494.9 30070.6 37046.9 32937.5 
27604.4 37629.3 37225 4455.79 29602.4 32289 31560.1 29989.6 39060 
21602.8 41256.1 30159.2 22357.1 41394.2 28672.4 15563 41339.2 27864.5 
4393.29 27421.1 30686.4 30193.8 28170.2 44320.9 30061.2 36427.7 33626.6 
29614.8 36273.4 29070.3 23678.1 41432.4 25634.5 26751.8 39149.1 33553.7 
27518.2 39882.8 29070.3 15648.8 41531.2 23263.7 4804.56 24997.3 27733.3 
5954.81 21062.5 26750 5333.69 23187.3 27281 6300.28 22351.6 23656.2 
31474.9 29307.1 35029.5 6206.23 22685.5 24129.6 5944.4 22836 25075 
24186.8 40263.8 22274.6 5574.69 25397.3 22799.3 4723.5 30859.4 20562.5 
29481.8 36046.4 29593.4 28502.1 35242.2 24429.7 30572.6 26380.5 41942.8 
29410.3 24618.7 45441.8 28052.4 19515.6 42992.2 29961.2 23461.4 38244.1 
30046.9 22862 35773.4 12515.6 40709.9 22367.2 31035 28770.5 32969.5 
30008.5 29543.9 44600.5 16125 41543.1 15664.1 29561.2 30085.9 26492.2 
4994.41 22243 30737.3 24303.5 38748.9 20036 26468.4 34468.8 20304.7 
7621.11 22905.2 20559.3 9421.88 22842.4 17210.9 24127 38221.7 19015.9 
22864.2 37304.7 16179.7 5047 28783.8 21412.5 8870.88 39292 28399.5 
6585.94 37614.1 25718.8 6990.19 25960.9 17984.4 15970.3 41572.2 17812.6 
13499.4 39882.8 15921.9 27843.1 19000 38093.8 4303.68 30079 28007.1 
28852.4 20989.6 38020.6 27468.8 19235.1 34226.6 6064.84 21470.8 26857.2 
5608.83 29761.1 18501 15922.4 41429.2 16091.2 15064.9 40656.2 13343.8 
27883.8 19761.5 35364.8 28408.2 21062.5 33195.3 6112.49 18513 31614.7 
28294.6 20644.9 44178.8 26437.5 16084.7 45570.3 7253.26 19622.7 26409.9 
9034.12 19257.8 22625 28866.1 25445.3 27781.2 9005.97 19488.9 23042.1 
10968.8 19666.2 19789.1 25819 35752.8 20224.1 9055.37 23115.5 17645.8 
10276.8 24671.9 13859.4 23288.3 37192.5 16919.7 22736.3 34210.9 14375 
14833.7 40795.1 16942.9 6289.76 32140.7 16185.2 7680.09 33437.5 12828.1 
27819.1 19325.8 38068.2 25148.4 16352.8 38093.8 8229.85 18104 26042.3 
8906.25 15390.6 29120.8 27398.3 19290.2 34482.2 25453.7 17710.9 31906.2 
28984.3 25425.8 28657.7 7636.99 38386 26951.9 8132.81 39144.4 23398.4 
8390.62 30085.9 11416.3 6883.25 16430 32839.7 24856.4 32590.3 17861.9 
23601.6 30343.8 15355.7 28099.1 20643.2 33485.4 27511 21320.3 29843.8 
7476.32 33400.8 13662.3 8906.25 35676.3 12312.5 26650.2 16952.2 44942 
24375 13486.9 43765.6 25899.9 18209.5 32263.8 24890.6 18226.6 29492.1 
26384.6 16169.2 45444.5 25406.2 14024.2 46601.6 25921.9 23590.1 23656.2 
23662.7 31062.6 15522.2 22385.7 30343.8 13085.9 13541.1 39889.9 16113.7 
11742.2 38605.1 15148.4 6784.14 14944.8 35661.6 6585.94 13843.8 38726.9 
26429.1 23584.4 24771.1 26953.1 26694.2 22625 24525.6 13926.8 44430.8 
22312.5 11097.5 44796.9 8549.03 13606.8 34258.9 9679.69 11710.1 37835.9 
23619.9 30559.4 15405.6 22373.3 26992.2 14375 24890.3 18040.1 30150.5 
22365.1 16937.5 27265.6 6328.12 35529.9 17468.8 22304.6 11402.2 44582.5 
20765.6 9869.31 44539.1 26795.9 25761.2 23268.8 25486.7 25960.9 20820.3 
22610.1 34425.9 14442 22054.7 32664.1 12777.6 22442.9 30267.8 13194.2 
20765.6 29045.4 9992.19 9193.97 12087.7 37331.7 8390.62 10750 41132.8 
22847 28347.7 14766.7 23343.8 25394.8 17210.9 22350.2 27156.8 14439.9 
21023.4 24779.1 13859.4 11894.2 38806.1 15445.1 9358.97 37562.5 15406.2 
22967.4 17427.4 27611.4 21796.9 18310.1 24171.9 22545.8 17084.5 27369.4 
29857.8 29796.9 27558.8 28546.4 27765.6 25460.9 24897.2 31764.6 17842.5 
22335.3 17904 25754.1 19623 16679.7 24687.5 21958.4 18188.3 24646.5 
22589.9 20031.2 22367.2 20436.7 17047 25007.5 19263.1 17710.9 22367.2 
18445.3 12801.2 31648.4 29500.3 29974.6 26603 19265.3 17715 22591.8 
17929.7 18484.4 20152.1 19592.5 13897.1 30474.6 16382.8 13070.3 29298.2 
25896.7 23486 23827.8 23894.4 22867.2 20820.3 18466.3 12946.6 31548.1 
16382.8 11726.6 33195.3 27210.9 31375 21543.2 17507.9 12385.4 32305.8 
17992.6 11781.2 35000 23894.1 22704.3 21205.2 21605.1 21578.1 18757.8 
19867.1 16789.9 24783.5 17929.7 14833.8 26492.2 21886 21547.5 19613.2 
19992.2 20181.8 19015.6 21689.3 21568.9 19014.4 19527.1 21578.1 16179.7 
15885.2 47407 53694.5 20365.4 42611 45306 22765.1 40706.8 43381.2 
11588.3 41202.2 41805.9 14658.5 42770.5 42691.5 9214.9 39196 39098.8 
22779.9 41046.6 44633.7 23711.6 39609.5 40943.3 25940.4 38675.7 43001.8 
24011.3 39280 40011.5 6938.52 35574.5 42059 6016.07 34812.3 40293.6 
6812.5 36581.5 37437.7 7261.61 32495.7 45900.4 14305.3 40955.9 35429.3 
20344.1 40993.9 33922 23859.4 40195.3 33453.1 4670.7 33234.3 32152.4 
25365.7 39865.5 33005.3 24117.2 40710.9 31648.4 30915.2 34328 36660.6 
30067.8 36861.1 33144.2 8953.79 39336.6 32199.9 8390.62 39429.1 31132.8 
5846.84 23396.9 46579.8 5752.69 20804.7 47890.6 5944.5 23640.6 49437.5 
31428.8 33849.5 35024.9 31650.5 32406.2 32679.7 4614.5 29583.2 38406.6 
31584 32839.2 33383.2 31135.9 33695.3 31390.6 5812.5 36352.8 31906.2 
27104.3 39486.6 31491.3 11963.8 40752.2 26073.8 9679.69 40170.5 26750 
4567.47 24643.6 30222.8 27262.6 39848.1 29471.3 26490.1 40398.4 27265.6 
29061.6 23073.6 44999.5 19878.8 41945.5 24760.3 7880.98 38545.3 32049.8 
7101.56 38129.7 30101.6 31155.4 33500.3 31603.8 30562.2 33591.6 29520.1 
30100.5 33179.7 27781.2 28757.8 21008.9 42734.4 27441.5 39872.4 29190.6 
29542.9 30052.5 26525.4 29560.1 32148.4 25976.6 30145.5 33363.1 28054.7 
29531.2 33695.3 26380.8 5767.13 26218.8 20304.7 25398.9 40650.2 25302.1 
27210.9 38659.8 25460.9 30021.2 23041.8 36514.6 28447.9 35807.7 25308.1 
27468.8 36572.5 23140.6 27530.6 19515.6 47632.8 7120.43 22572.8 22167.2 
8390.62 21205.8 21078.1 27994.2 19606.4 43033.7 27498.7 18226.6 41445.3 
21281.2 42212.4 20562.5 29036.2 21578.1 34484.4 13447.3 40957.3 22610.3 
12989 40656.2 20562.5 27855.3 21336 31106.8 28500 23125 29761.2 
29174.7 21700.1 34991.9 29531.2 22744.5 33710.9 9421.88 17644.9 24429.7 
27762.5 36343.1 23790.8 27468.8 34984.4 22292.9 6127.75 18132 31457.8 
7497.56 15906.2 30875 28255 22445.2 30272.6 27726.6 22579.5 28554.7 
7539.64 24207.1 18831.6 8025.56 24671.9 17210.9 18904.5 42170.2 22536.4 
18960.9 42260.9 20046.9 7826.01 24761.9 17597.7 7815.19 26476.6 15921.9 
6751.04 37634.8 25907.3 5738.25 36273.4 24687.5 27050.6 18423 37984 
26437.5 17646 35257.8 28451 35264.5 24558.6 28242.2 34311 23656.2 
28242.6 34482.2 23755.5 27842.1 33695.3 22625 7453.63 16095.9 31133.7 
8906.25 14039.7 31132.8 21749.8 41767.7 26329 9651.02 24379.8 15184.6 
8860.87 26476.6 13859.4 12591.4 40675 22363.4 28006.4 20906.5 32581.5 
26437.5 19347.5 30875 8562.43 14732 30952.7 10081.9 13843.8 29843.8 
8970.91 16394.5 27310.9 9655.97 15390.6 27523.4 6327.2 36317.6 21567.1 
7332.56 38335.9 21851.6 8180.77 38970.5 23495 8494.78 39109.4 21851.6 
25587.6 17860.5 32013.5 24543.1 16421.9 32937.5 8925.74 13073.2 34387.4 
10083.9 11781.2 35257.8 9198.61 26008.9 13922.5 9164.06 27202.6 12570.3 
27525.8 21217.5 30177.5 26756.2 20546.9 29070.3 11680.9 40305 22071 
10195.3 40176.7 23398.4 6627.19 36728.2 20660.2 6479.72 36531.2 19015.6 
13047.1 39564.8 15913.1 13031.2 38974.3 14375 9895.11 12050.7 35203.3 
10968.8 11214.1 36546.9 8881.09 35260.2 12568.7 11484.4 37092.2 11539.1 
10968.8 12228.8 32679.7 26421.6 16110 45532.6 26467.4 16164.1 47632.8 
26874.6 26628.4 22650.3 26695.3 28023.4 21563.8 22698.5 34275.4 14395.1 
23862.5 33179.7 15664.1 22402.9 30321 13118.4 21600.9 31117.2 11281.2 
22499.2 27514.1 14537.9 21796.9 27208.8 12828.1 6560.47 13835.2 38435 
6268.31 12554.7 41187.5 28821.8 28350.1 25809.6 27984.4 28023.4 23905.8 
21821.5 27152.6 13109.3 20618.2 26218.8 11539.1 24993 29265.6 18126.5 
25409.3 27507.8 19273.4 22998.1 26254.9 16211 22116.6 24156.2 16179.7 
20951.7 26683.8 11872.1 19992.2 27205.7 9992.19 24375 26964.3 17726.6 
22419.3 16981.6 27296.7 20765.6 16164.1 26852.1 28629 27941 25565.5 
28500 26476.6 25970.4 19696.2 16712.8 24716.3 18187.5 16164.1 24295.6 
22147.8 18741.2 23962.7 23859.4 20174.6 24171.9 23469.5 19977.3 23971 
24375 21529.7 23140.6 19263.8 17712.2 22434.6 19992.2 18982.5 20820.3 
20309.4 20409.2 19423.4 18960.9 19433.1 19789.1 16454.1 11805.5 33199.4 
15351.6 11255.3 34226.6 27238.4 31392.1 21629.4 26494.2 32148.4 20046.9 
22288.1 19615.8 22737.8 21539.1 20289.1 21025.5 19984.2 20250.1 19118.8 
18960.9 19971.4 18500 15867.2 42250.6 41703.1 24687.3 39548.5 43391.2 
19561.1 40656.2 38609.4 14578.1 41230.7 38609.4 25406.2 38453.5 39382.8 
6969.15 32083.7 45849.8 6328.12 31632.8 44613.3 5244.28 34984.4 33195.3 
24206.1 40152.1 33188.1 5950.38 30278.8 42675.9 5223.66 28539.1 41445.3 
24697.1 39022.2 37327.2 26268.4 38078.1 37578.1 4782.18 33053.2 33407.8 
4705.97 32148.4 32679.7 5168.69 27144.6 42027.9 4722.47 26992.2 40929.7 
30463.8 33697.4 40458 31140 32148.4 40929.7 28757.8 37304.7 35561 
10406 39828.5 37719.6 10453.1 40042.7 36289.1 5625.23 24291.4 45236.8 
5440.22 23125 45312.5 4265.62 30676.8 36804.7 30883 32737.1 40750.5 
31648.4 31632.8 39382.8 25278.9 38942.7 36388.9 25664.1 39173.3 35000 
20518.7 41357.8 29135.1 20507.8 41745.2 27523.4 13571.2 41086.6 33762.4 
12257.8 40731.5 32937.5 4478.37 26706.6 29518.4 4207.87 26992.2 28039.1 
18445.3 41745.2 25718.8 31630.6 32536.1 32890.8 31650.5 30859.4 32679.7 
31158.6 34726.6 33710.9 6367.62 36954.3 31753.5 5755.78 36015.6 30617.2 
29714.8 25625.7 44685.9 29602.4 24156.2 44023.4 31137.9 26476.6 39640.6 
5939.35 36297.2 30958.1 5243.25 34984.4 31390.6 4265.62 29799.3 22625 
31283.8 27749.7 34271.5 31137.9 26476.6 35000 30091.2 34984.4 28554.7 
[...]
CELL_DATA 1299
SCALARS radius float
LOOKUP_TABLE default
96.4176 92.9635 92.9635 89.6332 86.4222 89.6332 89.6332 86.4222 83.3262 
86.4222 83.3262 80.3411 83.3262 83.3262 77.463 80.3411 77.463 83.3262 
72.0123 80.3411 77.463 69.4326 80.3411 77.463 74.6879 64.547 72.0123 
77.463 74.6879 77.463 74.6879 74.6879 74.6879 74.6879 69.4326 60.0051 
72.0123 69.4326 55.7829 66.9452 69.4326 60.0051 66.9452 60.0051 72.0123 
62.2346 64.547 69.4326 62.2346 55.7829 64.547 55.7829 72.0123 69.4326 
57.8555 69.4326 62.2346 57.8555 69.4326 77.463 55.7829 57.8555 69.4326 
66.9452 60.0051 57.8555 51.8578 64.547 55.7829 60.0051 69.4326 60.0051 
51.8578 62.2346 55.7829 60.0051 74.6879 66.9452 57.8555 62.2346 57.8555 
57.8555 53.7845 64.547 57.8555 66.9452 64.547 50 57.8555 50 
64.547 51.8578 48.2088 64.547 55.7829 50 60.0051 50 60.0051 
53.7845 48.2088 62.2346 53.7845 53.7845 48.2088 62.2346 53.7845 66.9452 
66.9452 60.0051 46.4818 64.547 62.2346 53.7845 62.2346 53.7845 50 
44.8166 55.7829 48.2088 60.0051 53.7845 53.7845 48.2088 60.0051 57.8555 
51.8578 57.8555 50 60.0051 53.7845 64.547 57.8555 51.8578 46.4818 
62.2346 53.7845 55.7829 46.4818 57.8555 50 50 48.2088 44.8166 
62.2346 57.8555 55.7829 51.8578 55.7829 51.8578 57.8555 48.2088 51.8578 
46.4818 48.2088 40.1706 53.7845 44.8166 55.7829 48.2088 53.7845 64.547 
57.8555 60.0051 53.7845 46.4818 51.8578 44.8166 51.8578 46.4818 46.4818 
62.2346 50 48.2088 50 43.2111 62.2346 53.7845 48.2088 40.1706 
51.8578 44.8166 41.6631 57.8555 51.8578 50 43.2111 55.7829 50 
53.7845 48.2088 100 83.3262 80.3411 83.3262 80.3411 77.463 83.3262 
74.6879 74.6879 72.0123 74.6879 69.4326 80.3411 72.0123 77.463 80.3411 
57.8555 74.6879 66.9452 64.547 72.0123 66.9452 69.4326 66.9452 62.2346 
60.0051 57.8555 69.4326 62.2346 72.0123 66.9452 62.2346 60.0051 64.547 
72.0123 62.2346 72.0123 60.0051 55.7829 66.9452 69.4326 64.547 60.0051 
64.547 62.2346 53.7845 64.547 57.8555 60.0051 55.7829 60.0051 53.7845 
55.7829 66.9452 57.8555 64.547 60.0051 53.7845 62.2346 60.0051 51.8578 
60.0051 53.7845 55.7829 55.7829 62.2346 57.8555 57.8555 51.8578 57.8555 
55.7829 51.8578 57.8555 51.8578 64.547 53.7845 55.7829 50 55.7829 
50 66.9452 60.0051 53.7845 50 62.2346 55.7829 60.0051 55.7829 
57.8555 53.7845 55.7829 53.7845 57.8555 53.7845 72.0123 53.7845 50 
60.0051 60.0051 55.7829 55.7829 51.8578 50 46.4818 64.547 60.0051 
62.2346 55.7829 57.8555 51.8578 60.0051 55.7829 51.8578 48.2088 55.7829 
51.8578 55.7829 53.7845 62.2346 55.7829 55.7829 53.7845 57.8555 53.7845 
46.4818 41.6631 55.7829 51.8578 50 60.0051 55.7829 53.7845 50 
53.7845 50 50 46.4818 55.7829 51.8578 62.2346 55.7829 48.2088 
43.2111 57.8555 55.7829 50 48.2088 46.4818 43.2111 51.8578 51.8578 
44.8166 60.0051 57.8555 48.2088 44.8166 50 46.4818 48.2088 44.8166 
48.2088 46.4818 53.7845 51.8578 43.2111 40.1706 53.7845 48.2088 48.2088 
44.8166 51.8578 48.2088 74.6879 77.463 72.0123 74.6879 69.4326 69.4326 
66.9452 72.0123 64.547 74.6879 72.0123 69.4326 66.9452 77.463 74.6879 
69.4326 64.547 72.0123 62.2346 64.547 74.6879 69.4326 64.547 62.2346 
64.547 69.4326 66.9452 66.9452 64.547 74.6879 69.4326 72.0123 66.9452 
72.0123 64.547 66.9452 64.547 60.0051 62.2346 62.2346 57.8555 72.0123 
66.9452 64.547 60.0051 55.7829 66.9452 69.4326 66.9452 57.8555 60.0051 
53.7845 69.4326 64.547 69.4326 64.547 66.9452 57.8555 53.7845 66.9452 
69.4326 64.547 57.8555 66.9452 62.2346 64.547 60.0051 57.8555 55.7829 
51.8578 60.0051 62.2346 55.7829 64.547 62.2346 64.547 60.0051 57.8555 
62.2346 60.0051 57.8555 55.7829 57.8555 55.7829 60.0051 57.8555 64.547 
62.2346 57.8555 60.0051 55.7829 53.7845 55.7829 53.7845 55.7829 53.7845 
60.0051 55.7829 57.8555 55.7829 62.2346 60.0051 50 46.4818 60.0051 
55.7829 51.8578 50 57.8555 55.7829 57.8555 55.7829 53.7845 50 
62.2346 57.8555 60.0051 55.7829 57.8555 55.7829 55.7829 51.8578 50 
51.8578 48.2088 53.7845 60.0051 57.8555 48.2088 44.8166 53.7845 57.8555 
55.7829 51.8578 50 48.2088 46.4818 55.7829 51.8578 53.7845 50 
53.7845 50 60.0051 57.8555 43.2111 41.6631 51.8578 50 60.0051 
57.8555 53.7845 51.8578 55.7829 53.7845 46.4818 43.2111 60.0051 57.8555 
48.2088 46.4818 53.7845 50 44.8166 43.2111 51.8578 48.2088 44.8166 
43.2111 55.7829 51.8578 46.4818 43.2111 46.4818 44.8166 46.4818 43.2111 
44.8166 43.2111 55.7829 53.7845 50 46.4818 60.0051 55.7829 44.8166 
43.2111 43.2111 41.6631 50 48.2088 89.6332 83.3262 86.4222 80.3411 
80.3411 72.0123 77.463 74.6879 77.463 72.0123 74.6879 72.0123 74.6879 
77.463 66.9452 62.2346 77.463 74.6879 69.4326 72.0123 64.547 80.3411 
77.463 66.9452 64.547 77.463 69.4326 74.6879 72.0123 62.2346 60.0051 
60.0051 69.4326 80.3411 74.6879 64.547 66.9452 64.547 72.0123 69.4326 
72.0123 69.4326 69.4326 69.4326 66.9452 66.9452 72.0123 69.4326 66.9452 
64.547 74.6879 72.0123 72.0123 66.9452 66.9452 64.547 69.4326 62.2346 
64.547 64.547 60.0051 66.9452 64.547 69.4326 66.9452 64.547 72.0123 
66.9452 62.2346 60.0051 69.4326 64.547 64.547 62.2346 60.0051 69.4326 
66.9452 72.0123 69.4326 66.9452 64.547 64.547 62.2346 66.9452 64.547 
66.9452 66.9452 60.0051 57.8555 62.2346 57.8555 60.0051 57.8555 60.0051 
64.547 60.0051 72.0123 69.4326 69.4326 62.2346 55.7829 57.8555 53.7845 
72.0123 69.4326 60.0051 57.8555 62.2346 57.8555 53.7845 51.8578 62.2346 
60.0051 57.8555 55.7829 55.7829 53.7845 51.8578 66.9452 64.547 64.547 
62.2346 55.7829 51.8578 53.7845 50 55.7829 51.8578 60.0051 57.8555 
62.2346 60.0051 57.8555 55.7829 51.8578 50 60.0051 53.7845 60.0051 
57.8555 53.7845 51.8578 55.7829 53.7845 64.547 62.2346 57.8555 53.7845 
62.2346 60.0051 62.2346 60.0051 55.7829 53.7845 50 48.2088 55.7829 
57.8555 55.7829 57.8555 55.7829 53.7845 51.8578 66.9452 64.547 50 
48.2088 53.7845 51.8578 55.7829 53.7845 51.8578 48.2088 53.7845 50 
51.8578 50 55.7829 53.7845 60.0051 57.8555 57.8555 53.7845 53.7845 
51.8578 60.0051 57.8555 60.0051 55.7829 55.7829 46.4818 44.8166 51.8578 
46.4818 43.2111 41.6631 51.8578 50 51.8578 50 46.4818 44.8166 
48.2088 46.4818 50 48.2088 48.2088 44.8166 44.8166 43.2111 46.4818 
44.8166 44.8166 43.2111 55.7829 53.7845 50 46.4818 57.8555 55.7829 
48.2088 46.4818 51.8578 50 50 46.4818 83.3262 86.4222 83.3262 
83.3262 89.6332 83.3262 77.463 77.463 74.6879 83.3262 74.6879 83.3262 
77.463 80.3411 74.6879 80.3411 74.6879 77.463 74.6879 72.0123 72.0123 
64.547 62.2346 64.547 74.6879 69.4326 69.4326 64.547 80.3411 72.0123 
74.6879 72.0123 77.463 74.6879 77.463 72.0123 69.4326 66.9452 60.0051 
57.8555 66.9452 66.9452 62.2346 66.9452 64.547 72.0123 69.4326 66.9452 
62.2346 77.463 74.6879 74.6879 69.4326 66.9452 64.547 62.2346 72.0123 
69.4326 72.0123 77.463 74.6879 66.9452 66.9452 66.9452 64.547 66.9452 
64.547 72.0123 69.4326 69.4326 66.9452 69.4326 64.547 60.0051 57.8555 
66.9452 64.547 64.547 66.9452 64.547 64.547 62.2346 69.4326 62.2346 
57.8555 60.0051 57.8555 53.7845 66.9452 62.2346 64.547 62.2346 60.0051 
57.8555 53.7845 64.547 60.0051 55.7829 53.7845 55.7829 53.7845 66.9452 
64.547 62.2346 60.0051 62.2346 60.0051 64.547 57.8555 55.7829 57.8555 
55.7829 62.2346 60.0051 57.8555 64.547 64.547 62.2346 66.9452 64.547 
55.7829 53.7845 57.8555 53.7845 64.547 62.2346 62.2346 53.7845 51.8578 
53.7845 50 48.2088 46.4818 69.4326 66.9452 55.7829 53.7845 64.547 
60.0051 53.7845 51.8578 57.8555 55.7829 55.7829 53.7845 53.7845 50 
51.8578 50 69.4326 66.9452 55.7829 51.8578 62.2346 60.0051 57.8555 
55.7829 50 46.4818 53.7845 51.8578 48.2088 46.4818 51.8578 48.2088 
69.4326 66.9452 51.8578 50 57.8555 51.8578 50 48.2088 50 
46.4818 48.2088 46.4818 53.7845 50 55.7829 53.7845 57.8555 55.7829 
51.8578 50 51.8578 48.2088 51.8578 50 57.8555 55.7829 50 
48.2088 57.8555 55.7829 51.8578 50 50 48.2088 51.8578 50 
50 48.2088 48.2088 46.4818 53.7845 51.8578 51.8578 50 41.6631 
40.1706 50 48.2088 57.8555 55.7829 60.0051 57.8555 46.4818 43.2111 
57.8555 55.7829 48.2088 46.4818 51.8578 50 46.4818 44.8166 48.2088 
44.8166 96.4176 89.6332 86.4222 80.3411 83.3262 77.463 80.3411 74.6879 
77.463 69.4326 74.6879 72.0123 86.4222 80.3411 80.3411 74.6879 77.463 
72.0123 80.3411 77.463 74.6879 72.0123 86.4222 83.3262 77.463 74.6879 
77.463 74.6879 80.3411 74.6879 74.6879 72.0123 77.463 74.6879 72.0123 
69.4326 72.0123 69.4326 72.0123 69.4326 77.463 74.6879 74.6879 72.0123 
72.0123 66.9452 66.9452 64.547 74.6879 72.0123 69.4326 66.9452 74.6879 
69.4326 69.4326 66.9452 72.0123 69.4326 74.6879 72.0123 74.6879 72.0123 
66.9452 64.547 62.2346 60.0051 74.6879 69.4326 64.547 60.0051 64.547 
62.2346 77.463 74.6879 72.0123 69.4326 62.2346 60.0051 72.0123 69.4326 
72.0123 66.9452 69.4326 66.9452 69.4326 66.9452 66.9452 64.547 74.6879 
72.0123 66.9452 64.547 69.4326 64.547 66.9452 64.547 66.9452 64.547 
64.547 60.0051 72.0123 69.4326 69.4326 66.9452 62.2346 57.8555 60.0051 
57.8555 62.2346 57.8555 60.0051 57.8555 66.9452 64.547 66.9452 64.547 
60.0051 57.8555 69.4326 66.9452 64.547 62.2346 69.4326 66.9452 62.2346 
57.8555 60.0051 57.8555 55.7829 53.7845 62.2346 60.0051 69.4326 66.9452 
60.0051 57.8555 55.7829 53.7845 62.2346 60.0051 62.2346 60.0051 55.7829 
53.7845 62.2346 57.8555 66.9452 64.547 55.7829 53.7845 62.2346 60.0051 
55.7829 53.7845 60.0051 57.8555 74.6879 72.0123 60.0051 57.8555 66.9452 
64.547 55.7829 53.7845 57.8555 55.7829 55.7829 53.7845 62.2346 60.0051 
51.8578 50 53.7845 51.8578 53.7845 51.8578 60.0051 57.8555 50 
48.2088 55.7829 53.7845 60.0051 55.7829 51.8578 50 53.7845 51.8578 
57.8555 55.7829 51.8578 50 57.8555 55.7829 57.8555 55.7829 66.9452 
64.547 55.7829 53.7845 57.8555 55.7829 55.7829 53.7845 57.8555 55.7829 
50 46.4818 48.2088 46.4818 46.4818 44.8166 48.2088 46.4818 55.7829 
53.7845 50 48.2088 44.8166 43.2111 50 46.4818 57.8555 55.7829 
48.2088 44.8166 46.4818 44.8166 51.8578 50 55.7829 53.7845 55.7829 
53.7845 44.8166 43.2111 57.8555 55.7829 53.7845 51.8578 44.8166 43.2111 
48.2088 46.4818 46.4818 44.8166 53.7845 51.8578 46.4818 44.8166 44.8166 
43.2111 41.6631 40.1706 41.6631 40.1706 48.2088 46.4818 46.4818 44.8166 
46.4818 44.8166 92.9635 89.6332 92.9635 89.6332 86.4222 83.3262 86.4222 
83.3262 72.0123 69.4326 80.3411 77.463 83.3262 80.3411 77.463 74.6879 
77.463 74.6879 80.3411 77.463 74.6879 72.0123 74.6879 72.0123 77.463 
74.6879 77.463 74.6879 
