# vtk DataFile Version 4.1
vtk output
ASCII
DATASET POLYDATA
POINTS 1300 float
16125 47875 54078.1 15403.1 46111.5 52453.9 18348.4 44153 47872.3 
19318.6 43901.9 47343.8 22809.2 41592.4 46664.6 12341 42324.5 44042 
9412.18 38732.7 43774.1 8424.35 36983.1 43932 27555.2 37359.9 44301.7 
7823.75 34990.3 44456.6 6744.23 36219.1 37394.6 16634.3 41604.9 37381.9 
28843.2 36058 41399.8 22078.7 40404.5 35675.8 28252.7 36599.4 44287.3 
6090.63 28206.5 44438.3 29229.5 35667.4 40529.4 28862.8 36326.1 39121.4 
5932.12 26604.2 44990.5 5199.94 33466.7 33960.4 6633.38 36475.1 36981.6 
4664.2 30666.5 32712 30454.7 35386.9 35875.5 21749.2 41079.9 30920.8 
30134.8 31347 44077 30932.2 35105.1 34901.7 21683.7 41354 28504.4 
18718.5 41482.4 25331.4 4381.33 30306.6 29495.1 31623.9 31531.4 35532.9 
22942.4 41452.3 25733.5 4595.31 27597.8 27644.7 5039.06 26334.2 23140.6 
29582.7 25749.1 44493.6 5163.64 26298.3 24031.9 30212.4 36387 31630.5 
29853.3 36275.6 30002.7 16361.6 41317 23436.9 16382.8 41716.4 17726.6 
4689.37 25188.7 27018.4 24962.3 38815.3 21608.7 23708.8 39109.4 18757.8 
31360.7 29869.3 32408.3 24084.9 39021.1 19613.1 21023.4 41237.9 18500 
5708.55 22491.5 26157.5 6585.94 19515.6 27381.1 15735.4 41273 22933.5 
12773.4 40716.1 24171.9 29216.1 23190.4 44525.4 27726.6 20546.9 48766.2 
8840.25 22351.6 19015.6 16045.2 41424 19160.1 29236.6 35709.6 27202.1 
6429.08 24631.8 21969.6 6763.31 25960.9 18757.8 25327.4 37696.1 20933.6 
6070.31 30297.3 16695.3 23821.6 39082.9 19014.4 22828.1 37046.9 15869.3 
8279.56 22821.3 19636.7 9421.88 23898.4 16039.4 30288.8 26533.3 31816.4 
28242.2 23096.1 29070.3 6322.76 20408.4 27014.1 8906.25 17569.7 25460.9 
28012.6 19846.3 43274.5 26511.8 16679.7 45312.5 5780.53 30250.4 17830.3 
14846.8 41106 23305 11742.2 40196.3 20820.3 6912.23 25752.2 18991.5 
7677 26734.4 15921.9 21281.2 42260.9 22367.2 28093.6 20000.1 36754.3 
30696.2 27801 32041.3 29273.4 26689 28039.1 8132.81 14617.2 31860.9 
25856.8 34602.8 19961.5 24964.9 31375 17726.6 6115.9 30131.7 16960.8 
23096.8 37127.4 16473.2 22831.2 33695.3 14117.2 7333.59 32921.9 13085.9 
7231.19 16338.4 31474.8 6823.13 14875 35000 25921.9 18718.5 30617.2 
6978.12 15431 33660.4 8648.44 12964.1 34484.4 28741.9 24368.7 29526.1 
9561.61 23481.6 16613.1 11226.6 23640.6 13976.9 8538.09 30343.8 11023.4 
7127.45 33128.6 14204.9 8906.25 35500 12106.2 26745.3 17354.9 44454.8 
24427.6 13585.9 44281.2 24981.6 32029.9 17933 23364.4 29828.1 14890.6 
26291.1 24929.7 23140.6 25750.9 16735 38443.3 23859.4 14359.4 40464.6 
25990 18535.9 31763.8 6872.21 14961.3 34928.2 6786 14101.6 37835.9 
23587.4 30602.6 15214.4 22312.5 30077.7 12570.3 7875 37953.3 19015.6 
28178.6 23424.4 29050.1 8172.1 13659.4 34629.1 9421.88 11762.7 37578.1 
24504.8 14070.1 44467 22054.7 11007.8 44746.3 24191.4 17369.1 30153.3 
22365.1 16937.5 27265.6 23431.3 30060.5 14987.8 21995.9 26734.4 13859.4 
26574.9 24715.5 24032.1 27001.6 28023.4 22109.4 26340.8 24981.9 23235.2 
25774.4 25960.9 21078.1 22885.8 28796.5 14559 23343.8 26476.6 16171.4 
22391.9 29959.2 12911.1 21138.9 29054.7 10765.6 6817.35 13964.1 37556.2 
6843.75 11461.6 41445.3 25762.2 26008.6 21190.9 25083.5 27250 19015.6 
22742.5 17198.4 27633.3 21539.1 17968.8 24322.4 21023.4 14864.7 29585.9 
7231.5 12129.5 40111 9679.69 9976.56 41637.1 21514.8 29326.1 11409.2 
19992.2 25703.1 10903.8 22135.1 27059.1 14192.6 20765.6 23898.4 14490.5 
29525.1 27346.3 28597.9 28546.4 27765.6 25460.9 25504.3 26480.3 20364.3 
23859.4 25187.5 18445.3 22478.3 17015.8 27375.9 19781.8 15648.4 26492.2 
22140.7 17963.2 25315.8 22828.1 19854.9 23140.6 21719.6 17967.1 24620.4 
18703.1 17088.1 22882.8 21480.3 15216.1 29982 18703.1 13128.1 31390.6 
19445.4 17469.8 23063.2 22859.1 19657.6 23647.6 24375 22093.8 22567.2 
19536.3 13754.5 30968 16125 12786.7 29585.9 23920.2 21362.9 22891.4 
23343.8 22752.7 20046.9 18876.1 13259 31427.8 16903.6 11781.2 33195.3 
27498.7 31375 21851.6 22837.4 19795.7 23292.7 20817.2 19257.8 21593.8 
18282 13551 30076.5 17156.2 14167.6 27265.6 17495.3 12224.6 32665 
17929.7 11745.2 36289.1 21678.7 19685.5 21999.5 20765.6 20660.3 19273.4 
20913.4 20660.2 19423.9 20250 21774.1 16695.3 17957.5 19515.6 18242.2 
23461.4 40582.7 43992.2 24185 40003.3 43463.5 25723.3 38627.6 41977.6 
6782.39 33337.8 42694.7 29360.4 34381.3 43657.7 6144.05 31355.8 42573 
4950.79 29367.4 40445.4 28369.1 37087.6 37358.2 13881.2 41007 35400.9 
31647.6 29901.6 35989.9 31851.6 28767 37835.9 4264.59 27954.2 30689.8 
31640.5 30390.5 35852.8 29205.4 38078.1 29328.1 22810.7 41382.8 26665.2 
22616.6 41717.1 23953.8 23395.3 40914.1 21078.1 5094.13 23715.7 26574.8 
5750.62 23382.8 24171.9 4899.54 26994.7 25207.7 4697.72 28023.4 23398.4 
18187.5 42255.7 21078.1 5654.2 23317.9 24748.5 18175.5 42175.4 21220.1 
17852.3 42203.1 19273.4 29593.1 32664.1 26750 28531 21743.6 45980.1 
28046.2 20289.1 46085.9 7492.41 21578.1 22109.4 29682.7 33072.6 27278.8 
28106.8 36229.6 24579.8 27210.9 36930.3 23140.6 6602.13 19602.6 27308.7 
7359.38 17904.8 27781.2 27766.4 36495.9 24032.9 27468.8 35252.5 22367.2 
8672.05 22492.5 19201.9 9480.66 21062.5 19789.1 21419.8 42086.9 22441.8 
20250 42260.9 20820.3 26953.1 17118 42476.6 9461.68 22717.6 17766.3 
10453.1 22244.3 16695.3 6908.2 25298.4 19618.5 7815.19 24671.9 17726.6 
7823.44 38851.6 25718.8 9416.82 21268.1 19666.6 10584.1 19773.4 20046.9 
17975.2 42192.6 20013.2 19476.6 42257.8 18757.8 28242.2 21512.1 32164.1 
27409.9 22595.9 28246.3 26953.1 22558.8 26750 7735.16 26426.5 16225.5 
8540.16 26476.6 14375 12580.4 40370.3 21202.4 11742.2 39684.8 18757.8 
7948.53 15249 31520.7 9585.84 13843.8 30617.2 11993.7 40248.5 20934.9 
10195.3 39701.3 21593.8 22692.9 33982.9 14287.1 22369.2 32664.1 13343.8 
24242 15390.6 37578.1 8229.13 26639.5 14914.3 8330.81 27765.6 13601.6 
22880.9 41681 24827 21023.4 42260.9 24429.7 25837.4 18639.3 30838 
25148.4 18609.2 29328.1 8750.64 12884.3 35549.5 9894.19 11781.2 35515.6 
25574.5 15450.8 44760.6 25263.9 13843.8 46601.6 25896.5 18694.7 30683.4 
26813.9 20546.9 29328.1 9551.09 12112.2 35525.8 10710.9 11755.5 33968.8 
23769.8 13151.5 44550.8 23208.7 12554.7 43250 8770.13 35134.4 12835.5 
10453.1 36904.6 12312.5 9791.27 11880.6 35518.7 10968.8 11214.1 36546.9 
26601.8 16886.8 45232.5 26437.5 16084.7 47375 10215.3 36450.5 12273.2 
12000 37074.7 11023.4 22336.3 30042.2 12672.5 21707.2 31632.8 11796.9 
22739.3 16314.2 29647.2 21796.9 15965 28554.7 22229 11403.7 44592.4 
19992.2 9701.22 44023.4 27078.7 26844.6 23311.6 24011.5 25394.8 18591.7 
23085.9 24788.4 17468.8 23093.4 24797.7 17467.1 22054.7 24128.4 16179.7 
20854.4 28093.3 10989.1 19734.4 27507.8 9382.72 21039.9 14964.2 29751.8 
19476.6 14295.4 29328.1 25173.5 27258.8 19199.3 24915.4 28796.9 17726.6 
29040.7 27838 26845.9 29071.3 29570.3 25718.8 20394.9 16114.4 26514.2 
18960.9 16339.4 24945.3 28989.7 29247 25806.5 18194.8 12845 31756.6 
16672.6 12296.9 31390.6 20967.1 19393.1 21555.3 19734.4 19154.7 20304.7 
27577.8 31399.5 22316 27011.9 29828.1 21593.8 27522.4 31382.3 21990.9 
26695.3 31117.2 20512 23833.8 22240.4 21605.8 24744.2 24156.2 20820.3 
17730.7 14041 28213.4 18445.3 14804.9 27007.8 20810 20660.3 19318.6 
19527.1 20031.2 18757.8 20120.5 21541.4 16989.2 19218.8 21897.8 15406.2 
6382.88 35716.3 40022.8 5763.93 34652 39527 6092.48 31188.8 42721.4 
26820.1 37562.5 39382.8 4722.47 32406.2 35000 14818 41173 36353.1 
30304.7 36396.2 34484.4 30928.6 28539.1 43250 30496.5 30769.8 43912.2 
6266.25 22609.4 48921.9 31398.1 33560.7 32832.1 31134.8 33437.5 31132.8 
6876.65 37597.9 31144.1 6253.87 36789.1 30617.2 31451.4 31117.2 31906.2 
31335.9 27220.1 34742.2 5681.53 25048.7 23116.2 4766.19 28049.9 23490 
4721.44 28796.9 22367.2 29494.4 24961.9 45455.1 29070.3 23382.8 46085.9 
29339.1 23799.9 44338.3 31304.8 27331.4 34818.1 30928.6 26218.8 33710.9 
29113.8 23737 46059.9 5102.59 26272.3 23236.9 5252.53 25960.9 22109.4 
6585.94 23077.6 22367.2 17906.2 42203.4 19351.9 17929.7 42232 17984.4 
29762.1 33434.9 27747.7 29558.1 33953.1 26492.2 28555.7 20031.2 41960.9 
23628.8 38562.7 18338.4 22312.5 39281.6 16953.1 28111.9 20428.2 45979.9 
27726.6 19123.8 45828.1 16280.8 41633.4 17897 16305.5 41687.5 16179.7 
29424.3 36310.4 28340.1 29025.9 37046.9 27265.6 28057.8 20832.5 47111.5 
27530.6 19515.6 47632.8 7364.74 19404.9 25989.9 22372.7 40631.6 19561.5 
21539.1 41747.3 20046.9 28525.3 20167.5 42009 27984.4 19132 41445.3 
29980.5 26932.7 30178.7 8648.44 18455.5 24429.7 27263.9 36793.3 23201.1 
26517.9 36789.1 21851.6 26690.7 17177 44750.4 27027.4 17710.9 45828.1 
6015.24 30167.3 17221.7 6328.12 28796.9 16622.1 27886.5 23109.5 28744.7 
27726.6 23382.8 27733.8 9509.43 23827.5 16089.1 9937.5 19116.5 21851.6 
27581.8 35725 23000.2 28031.8 34210.9 23140.6 7675.66 33785.6 13566.1 
7875 33953.1 12282.6 28405 21847.3 32114.8 27659.5 21062.5 30875 
10195.3 25135.9 13343.8 24477.1 31070.9 16911.2 28223.1 23194.6 29064.3 
27726.6 22046.3 29585.9 8162.2 29630.2 12394.2 8906.25 28746.3 11281.2 
8484.57 13240.9 35126.1 7827.56 13070.3 36546.9 26715.2 24382.9 24707.5 
25921.9 23590.1 23656.2 25190.1 18527.6 29614.4 24117.2 17968.8 28460.8 
26427 16232.1 46589 25951.8 15132.8 47117.2 22789.7 33781.6 14168.1 
23368.5 31890.6 14632.8 11484.4 38335.9 15007.2 11931 38606.7 15327.3 
12257.8 38139 13859.4 7007.92 13120.2 38731.4 8390.62 12039.1 38766.1 
25273.2 20546.9 26234.4 23056 32911.8 14381.9 23916.1 32664.1 15921.9 
26928.2 27574.8 22349.7 26284.9 27765.6 20820.3 9477.36 11872.8 37524.4 
10195.3 11194.5 39125 22600.6 28136.3 14419.8 21854.6 27765.6 12828.1 
22037.7 26831.8 13959.3 21023.4 26171.3 12570.3 21873.1 27699 12921.4 
21281.2 27209.8 11796.9 21333.4 25365.8 14165.8 20615.1 24671.9 13085.9 
25110.5 27252.6 19070.7 24392.5 26734.4 17984.4 24665.4 26931.3 18397.2 
24375 27674.9 17468.8 29186.1 27690.5 27371.5 28500 26468.3 25976.6 
18986.6 16200.5 25075.5 18031.8 16164.1 24171.9 22830.9 19837.1 23186.3 
22863.2 20804.7 21851.6 27852.4 29828.1 23140.6 16599.1 12920.5 29862.8 
15351.6 12268 30617.2 17081.1 11914.3 33036.2 15867.2 11723.5 32937.5 
[...]
CELL_DATA 1299
SCALARS radius float
LOOKUP_TABLE default
96.4176 92.9635 89.6332 86.4222 92.9635 89.6332 86.4222 83.3262 83.3262 
86.4222 86.4222 80.3411 80.3411 80.3411 80.3411 77.463 77.463 74.6879 
83.3262 83.3262 80.3411 74.6879 77.463 74.6879 72.0123 74.6879 72.0123 
77.463 72.0123 69.4326 74.6879 64.547 72.0123 69.4326 69.4326 66.9452 
69.4326 62.2346 72.0123 66.9452 60.0051 69.4326 64.547 55.7829 66.9452 
55.7829 66.9452 57.8555 66.9452 57.8555 55.7829 66.9452 62.2346 64.547 
55.7829 62.2346 60.0051 62.2346 50 62.2346 53.7845 64.547 55.7829 
60.0051 55.7829 64.547 55.7829 69.4326 64.547 55.7829 57.8555 51.8578 
57.8555 74.6879 66.9452 57.8555 62.2346 60.0051 55.7829 64.547 55.7829 
48.2088 62.2346 69.4326 57.8555 62.2346 64.547 57.8555 62.2346 57.8555 
53.7845 57.8555 64.547 55.7829 62.2346 53.7845 57.8555 50 51.8578 
64.547 57.8555 69.4326 62.2346 57.8555 53.7845 48.2088 66.9452 60.0051 
60.0051 50 55.7829 48.2088 66.9452 60.0051 51.8578 43.2111 57.8555 
50 55.7829 51.8578 50 43.2111 51.8578 44.8166 60.0051 50 
53.7845 46.4818 64.547 57.8555 55.7829 51.8578 48.2088 48.2088 43.2111 
46.4818 43.2111 62.2346 55.7829 51.8578 48.2088 62.2346 55.7829 62.2346 
51.8578 60.0051 53.7845 62.2346 55.7829 57.8555 57.8555 51.8578 60.0051 
51.8578 55.7829 50 57.8555 50 50 55.7829 46.4818 57.8555 
51.8578 53.7845 50 51.8578 44.8166 48.2088 41.6631 51.8578 83.3262 
80.3411 77.463 80.3411 77.463 77.463 74.6879 72.0123 77.463 66.9452 
60.0051 77.463 69.4326 62.2346 72.0123 64.547 60.0051 69.4326 64.547 
72.0123 62.2346 62.2346 66.9452 64.547 57.8555 55.7829 62.2346 57.8555 
64.547 60.0051 60.0051 51.8578 57.8555 51.8578 57.8555 50 60.0051 
51.8578 60.0051 57.8555 60.0051 60.0051 55.7829 60.0051 55.7829 57.8555 
55.7829 51.8578 62.2346 60.0051 53.7845 55.7829 51.8578 53.7845 48.2088 
60.0051 55.7829 66.9452 62.2346 57.8555 51.8578 51.8578 50 62.2346 
51.8578 48.2088 66.9452 64.547 66.9452 62.2346 55.7829 50 57.8555 
55.7829 64.547 60.0051 53.7845 48.2088 53.7845 51.8578 60.0051 55.7829 
51.8578 48.2088 57.8555 51.8578 57.8555 53.7845 50 48.2088 64.547 
60.0051 50 46.4818 53.7845 50 46.4818 48.2088 44.8166 46.4818 
43.2111 60.0051 57.8555 50 48.2088 57.8555 53.7845 57.8555 51.8578 
55.7829 55.7829 51.8578 50 44.8166 53.7845 51.8578 51.8578 48.2088 
53.7845 50 53.7845 50 46.4818 44.8166 44.8166 43.2111 77.463 
74.6879 74.6879 69.4326 72.0123 80.3411 64.547 66.9452 72.0123 69.4326 
64.547 62.2346 74.6879 72.0123 60.0051 60.0051 66.9452 66.9452 62.2346 
66.9452 62.2346 69.4326 62.2346 57.8555 64.547 66.9452 60.0051 62.2346 
60.0051 57.8555 62.2346 60.0051 64.547 60.0051 55.7829 60.0051 55.7829 
64.547 60.0051 64.547 57.8555 60.0051 57.8555 57.8555 60.0051 53.7845 
66.9452 64.547 64.547 55.7829 55.7829 53.7845 60.0051 57.8555 66.9452 
60.0051 57.8555 55.7829 55.7829 57.8555 55.7829 51.8578 62.2346 57.8555 
57.8555 53.7845 53.7845 55.7829 57.8555 51.8578 60.0051 55.7829 57.8555 
55.7829 60.0051 57.8555 64.547 60.0051 53.7845 51.8578 50 44.8166 
55.7829 57.8555 53.7845 55.7829 51.8578 51.8578 48.2088 41.6631 51.8578 
50 51.8578 50 48.2088 43.2111 44.8166 43.2111 46.4818 44.8166 
44.8166 43.2111 48.2088 44.8166 46.4818 43.2111 60.0051 57.8555 53.7845 
51.8578 53.7845 51.8578 50 55.7829 53.7845 51.8578 48.2088 50 
46.4818 50 46.4818 51.8578 50 46.4818 44.8166 80.3411 66.9452 
69.4326 72.0123 60.0051 77.463 72.0123 69.4326 74.6879 72.0123 69.4326 
64.547 66.9452 69.4326 66.9452 64.547 62.2346 72.0123 74.6879 69.4326 
62.2346 66.9452 64.547 64.547 64.547 62.2346 62.2346 62.2346 60.0051 
57.8555 55.7829 57.8555 57.8555 55.7829 57.8555 53.7845 62.2346 55.7829 
64.547 60.0051 57.8555 55.7829 64.547 57.8555 55.7829 62.2346 60.0051 
55.7829 51.8578 55.7829 62.2346 57.8555 53.7845 48.2088 62.2346 57.8555 
53.7845 51.8578 53.7845 51.8578 62.2346 55.7829 50 60.0051 64.547 
60.0051 66.9452 64.547 44.8166 43.2111 62.2346 60.0051 57.8555 53.7845 
51.8578 50 48.2088 53.7845 51.8578 60.0051 57.8555 57.8555 55.7829 
51.8578 50 57.8555 53.7845 46.4818 44.8166 53.7845 51.8578 50 
48.2088 50 48.2088 55.7829 53.7845 44.8166 43.2111 62.2346 60.0051 
53.7845 51.8578 53.7845 50 53.7845 51.8578 46.4818 44.8166 46.4818 
44.8166 44.8166 43.2111 50 48.2088 55.7829 51.8578 53.7845 51.8578 
51.8578 51.8578 55.7829 53.7845 48.2088 46.4818 55.7829 53.7845 48.2088 
46.4818 51.8578 50 57.8555 48.2088 46.4818 53.7845 51.8578 66.9452 
80.3411 74.6879 83.3262 80.3411 74.6879 83.3262 77.463 69.4326 80.3411 
74.6879 74.6879 72.0123 77.463 72.0123 72.0123 66.9452 74.6879 69.4326 
77.463 74.6879 74.6879 72.0123 72.0123 72.0123 72.0123 69.4326 74.6879 
66.9452 72.0123 72.0123 72.0123 74.6879 69.4326 72.0123 72.0123 66.9452 
86.4222 80.3411 74.6879 74.6879 69.4326 64.547 64.547 64.547 66.9452 
64.547 62.2346 60.0051 66.9452 64.547 69.4326 64.547 64.547 66.9452 
60.0051 72.0123 66.9452 64.547 62.2346 62.2346 60.0051 69.4326 66.9452 
64.547 60.0051 66.9452 64.547 60.0051 64.547 62.2346 60.0051 57.8555 
64.547 60.0051 66.9452 64.547 72.0123 69.4326 62.2346 60.0051 62.2346 
60.0051 62.2346 57.8555 57.8555 57.8555 55.7829 55.7829 53.7845 60.0051 
57.8555 60.0051 57.8555 60.0051 57.8555 62.2346 60.0051 72.0123 69.4326 
74.6879 66.9452 60.0051 55.7829 80.3411 74.6879 57.8555 53.7845 62.2346 
55.7829 51.8578 48.2088 60.0051 55.7829 66.9452 62.2346 57.8555 55.7829 
55.7829 50 69.4326 62.2346 57.8555 55.7829 60.0051 57.8555 51.8578 
50 57.8555 55.7829 69.4326 66.9452 64.547 60.0051 60.0051 57.8555 
51.8578 48.2088 62.2346 57.8555 74.6879 69.4326 62.2346 57.8555 72.0123 
66.9452 55.7829 53.7845 60.0051 51.8578 55.7829 53.7845 62.2346 60.0051 
50 46.4818 48.2088 46.4818 72.0123 62.2346 64.547 60.0051 69.4326 
64.547 66.9452 60.0051 62.2346 60.0051 62.2346 60.0051 64.547 60.0051 
62.2346 57.8555 62.2346 60.0051 60.0051 55.7829 57.8555 53.7845 50 
48.2088 69.4326 64.547 66.9452 60.0051 46.4818 44.8166 64.547 60.0051 
62.2346 57.8555 51.8578 50 44.8166 43.2111 60.0051 57.8555 60.0051 
57.8555 53.7845 51.8578 55.7829 53.7845 53.7845 51.8578 53.7845 51.8578 
50 48.2088 51.8578 50 43.2111 41.6631 100 86.4222 89.6332 
83.3262 96.4176 86.4222 86.4222 80.3411 89.6332 83.3262 83.3262 74.6879 
86.4222 74.6879 83.3262 77.463 77.463 69.4326 80.3411 77.463 74.6879 
69.4326 72.0123 66.9452 86.4222 83.3262 89.6332 83.3262 69.4326 62.2346 
72.0123 64.547 89.6332 86.4222 66.9452 64.547 80.3411 74.6879 72.0123 
64.547 69.4326 62.2346 69.4326 64.547 74.6879 72.0123 77.463 74.6879 
83.3262 80.3411 66.9452 64.547 72.0123 64.547 66.9452 60.0051 72.0123 
66.9452 64.547 62.2346 77.463 72.0123 69.4326 64.547 69.4326 66.9452 
66.9452 62.2346 72.0123 66.9452 74.6879 72.0123 69.4326 66.9452 74.6879 
72.0123 77.463 74.6879 83.3262 80.3411 74.6879 69.4326 69.4326 66.9452 
74.6879 69.4326 69.4326 64.547 69.4326 62.2346 77.463 74.6879 66.9452 
64.547 69.4326 64.547 72.0123 66.9452 72.0123 66.9452 64.547 60.0051 
69.4326 66.9452 77.463 72.0123 69.4326 64.547 72.0123 69.4326 66.9452 
64.547 69.4326 64.547 66.9452 62.2346 69.4326 66.9452 66.9452 60.0051 
64.547 62.2346 66.9452 64.547 62.2346 55.7829 64.547 62.2346 60.0051 
55.7829 66.9452 62.2346 64.547 62.2346 74.6879 69.4326 66.9452 64.547 
64.547 60.0051 62.2346 60.0051 64.547 60.0051 80.3411 77.463 57.8555 
53.7845 62.2346 55.7829 62.2346 55.7829 77.463 72.0123 60.0051 57.8555 
60.0051 55.7829 69.4326 66.9452 57.8555 51.8578 64.547 62.2346 60.0051 
55.7829 57.8555 53.7845 55.7829 53.7845 74.6879 69.4326 57.8555 53.7845 
53.7845 48.2088 60.0051 55.7829 51.8578 48.2088 72.0123 64.547 69.4326 
64.547 72.0123 66.9452 64.547 60.0051 64.547 62.2346 50 46.4818 
57.8555 55.7829 62.2346 60.0051 69.4326 64.547 62.2346 60.0051 55.7829 
53.7845 57.8555 55.7829 66.9452 64.547 50 46.4818 62.2346 60.0051 
64.547 62.2346 50 48.2088 48.2088 46.4818 53.7845 51.8578 62.2346 
57.8555 62.2346 60.0051 57.8555 55.7829 55.7829 53.7845 62.2346 60.0051 
53.7845 51.8578 57.8555 55.7829 69.4326 66.9452 51.8578 50 66.9452 
62.2346 60.0051 57.8555 53.7845 51.8578 43.2111 41.6631 55.7829 53.7845 
69.4326 66.9452 50 48.2088 60.0051 57.8555 66.9452 64.547 53.7845 
51.8578 60.0051 57.8555 77.463 74.6879 62.2346 60.0051 55.7829 53.7845 
55.7829 53.7845 57.8555 55.7829 62.2346 60.0051 48.2088 46.4818 48.2088 
46.4818 55.7829 53.7845 51.8578 50 53.7845 51.8578 62.2346 60.0051 
57.8555 55.7829 46.4818 44.8166 44.8166 43.2111 44.8166 43.2111 60.0051 
57.8555 55.7829 53.7845 53.7845 51.8578 48.2088 46.4818 51.8578 50 
46.4818 44.8166 92.9635 89.6332 92.9635 86.4222 89.6332 86.4222 80.3411 
77.463 77.463 72.0123 74.6879 69.4326 80.3411 74.6879 77.463 74.6879 
72.0123 66.9452 64.547 62.2346 86.4222 83.3262 69.4326 66.9452 66.9452 
64.547 69.4326 66.9452 77.463 74.6879 66.9452 64.547 64.547 62.2346 
83.3262 80.3411 77.463 74.6879 74.6879 72.0123 69.4326 66.9452 77.463 
74.6879 66.9452 64.547 62.2346 57.8555 60.0051 55.7829 57.8555 55.7829 
77.463 74.6879 74.6879 72.0123 66.9452 64.547 74.6879 72.0123 64.547 
62.2346 80.3411 74.6879 77.463 74.6879 77.463 74.6879 66.9452 64.547 
64.547 62.2346 74.6879 72.0123 72.0123 69.4326 72.0123 69.4326 62.2346 
60.0051 66.9452 64.547 66.9452 64.547 83.3262 80.3411 62.2346 60.0051 
62.2346 60.0051 66.9452 62.2346 64.547 62.2346 74.6879 72.0123 77.463 
74.6879 69.4326 66.9452 66.9452 64.547 64.547 62.2346 80.3411 77.463 
72.0123 69.4326 66.9452 64.547 57.8555 55.7829 64.547 62.2346 74.6879 
72.0123 72.0123 69.4326 64.547 62.2346 60.0051 57.8555 55.7829 53.7845 
69.4326 66.9452 55.7829 53.7845 55.7829 53.7845 64.547 62.2346 62.2346 
60.0051 62.2346 60.0051 66.9452 64.547 62.2346 57.8555 60.0051 57.8555 
57.8555 55.7829 69.4326 66.9452 72.0123 69.4326 57.8555 55.7829 48.2088 
46.4818 64.547 57.8555 62.2346 60.0051 60.0051 57.8555 57.8555 53.7845 
60.0051 57.8555 53.7845 51.8578 57.8555 55.7829 55.7829 53.7845 57.8555 
55.7829 51.8578 50 53.7845 51.8578 66.9452 64.547 50 48.2088 
53.7845 51.8578 62.2346 60.0051 60.0051 57.8555 60.0051 57.8555 72.0123 
69.4326 64.547 62.2346 62.2346 60.0051 57.8555 55.7829 55.7829 53.7845 
60.0051 57.8555 53.7845 51.8578 64.547 62.2346 55.7829 53.7845 53.7845 
51.8578 72.0123 66.9452 69.4326 66.9452 53.7845 51.8578 53.7845 51.8578 
64.547 62.2346 53.7845 51.8578 60.0051 57.8555 51.8578 50 55.7829 
53.7845 55.7829 53.7845 
