# vtk DataFile Version 4.1
vtk output
ASCII
DATASET POLYDATA
POINTS 1300 float
16125 47875 54078.1 15403.1 46110.7 52273.4 17836.7 44370 48140.7 
19200.3 43544.9 46929.6 12187.5 42102.8 43601.3 11093.7 40822.7 41145.4 
17696 42719.1 43701.1 18021.3 41831.8 40834.9 8283.48 36087.4 44057.8 
27308.9 37015.8 42840.4 19973.1 40715.3 37359.2 16028.6 41393 36606.3 
6261.3 33679.2 41238.5 5923.67 35041.7 34763.1 5881.18 27670.8 43960.2 
29226.9 34325 42652.9 28851.4 35772.9 39633.9 21811.4 41003.6 32351.8 
16096.1 41279.3 32594.4 4619.65 30336.9 31282.2 30087.3 31423.9 43253.8 
5010.91 31748.3 32326.5 30875.7 33509.4 36846.2 12977 41023.3 30485.9 
15806 41382.7 26220.9 4331.42 27815.1 29372.9 4442.9 31158.4 26485.1 
30962.5 29043.4 40737.7 4605.42 26497.3 26870.3 22715.3 41915.9 24422.9 
29298.1 36009.7 29749.6 25836.9 40094.8 30604.3 24211.8 39519.3 21570.9 
29210 35620.1 28315.8 30046.9 32406.2 27444 23784.6 38871.5 19151.3 
29106.5 22717.2 44423.6 27984.4 20735.6 48406.2 4885.2 23470.8 30229.3 
30128.1 27469.9 43886.6 7298.53 18742.2 26750 25000.9 38250.3 20916.9 
27726.6 18948.4 42992.2 6320.19 21345.6 26488.2 7838.9 19773.4 23914.1 
7161.37 23406.4 21038.6 9555.94 22609.4 17468.8 30682.7 26223.4 33203.1 
29949.5 23475.8 38095.8 28014.3 19257.8 38093.8 13546.9 40006.6 16179.7 
29809.7 22909.8 36926.8 29082.7 22093.8 33710.9 22570.3 36531.2 15355.7 
6659.16 23945.5 21736.9 28175.5 20077.6 43566.8 26953.1 17115.9 45828.1 
9937.5 20374.7 20046.9 5128.78 30546.7 19851 9969.26 40040.2 28266.6 
6768.47 28796.9 16179.7 13134.4 40812.8 23467.9 8962.86 23090.4 17999.5 
9937.5 24507.9 14375 28594.9 20523.2 38094.4 29630.2 25262.9 30694.7 
25590.8 35526.8 19928.6 24920.5 31632.8 17210.9 27971 19490.9 38058 
6666.17 17553.5 31249.6 7617.19 14494.5 33453.1 6625.95 28867.1 16644.6 
25921.9 18204.9 31648.4 7027.52 16391 32087 9421.88 13824.2 30875 
28916.8 22066.1 33945.9 7410.22 28004.6 15600.5 8132.81 29267.1 12570.3 
22907.9 36605.3 16047.3 22886.9 32921.9 14375 6903.87 33011.1 14528.7 
23912 15132.8 38351.6 7701.65 14698.9 33300.8 9357.94 12296.9 35000 
27030.5 17474.9 45217.6 25148.4 13968.5 45828.1 8153.13 29337.8 12720 
8824.78 30601.6 10507.8 27630.8 23204.9 27869.7 7642.56 14555.8 33407.4 
24712.1 31917.7 17392.8 23601.6 29312.5 15531 25997.3 18414.9 31846.4 
10090.1 36531.2 11796.9 25245.4 14533.6 45271.8 23343.8 11979.2 44539.1 
23729.2 30015.9 15727.5 22371.3 29312.5 13343.8 6858.6 14000 37414.1 
9421.88 11723.5 38093.8 22570.3 16927.2 27523.4 26957 24813.8 24809.3 
26760.3 28023.4 21593.8 23374.8 12262.7 44845.8 21281.2 10072.5 44796.9 
7096.61 37528.4 20940.4 8574.19 38078.1 17468.8 23639.8 29523.5 15590 
22828.1 26218.8 15558.9 25406.2 21226.5 25460.9 26679.3 26097.7 23089.3 
25465 25960.9 20562.5 23136.6 27474.6 15570.7 21347.3 26218.8 13085.9 
22513.1 29465 13518.1 20765.6 29045.4 9992.19 8283.58 12554.8 38198.5 
9164.06 10669.6 40929.7 23259.9 17555.7 27876.1 21539.1 17886.2 24945.3 
22777.2 17115.7 27629.2 21023.4 14864.7 29585.9 28500 28023.4 24939.1 
25817.5 26261.5 21158.1 24947.3 27765.6 18500 21289.9 29171.3 11049.9 
19794.2 26476.6 10250 22780.3 26414.4 15614.8 21539.1 23759.2 15921.9 
22075.9 18017.9 25447.9 21700.1 17925.7 25096.1 19103.2 16679.7 24171.9 
20926.9 15052.3 29403.4 19248.7 13328.1 30875 28791.7 27696.1 26053.6 
29060 30601.6 25203.1 20297.8 17252.9 24597 18960.9 18110 21593.8 
25821.4 21793.9 25671.2 24375 21785.4 22882.8 19398.7 13808.7 30323.8 
16125 12450.5 30617.2 26834.6 27746.5 22153.3 27493.5 30859.4 21851.6 
24649.1 21975.2 23238.6 23543.8 23125 20046.9 19293.7 13472.3 30709.7 
18187.5 12245.3 33453.1 18161.3 12499.9 32820.7 15867.2 11697.7 34226.6 
21482 15671.2 28871.1 17414.1 14277.9 27523.4 21796.9 20738.7 20304.7 
21603.2 20411.3 20666.6 20042.7 21062.5 17726.6 21585.4 24236.6 15766.8 
19476.6 22048.4 15406.2 20363.8 40793.3 35496.4 30616.7 32972.5 41981.5 
30921.2 32514.6 41720.9 31530.4 28747.4 39532 15853.9 41344.5 27652.8 
4608.83 31034.3 28638.9 29365.6 36811.3 32733.8 16378.4 41609.3 20509.7 
6897.27 20748.2 25510 6843.75 21730.8 23140.6 28538.3 21489.6 45844.9 
29615.1 33896.5 27613.5 28696 35412.4 25803 28571.2 34210.9 24687.5 
29541.9 22656.7 36032.5 9363.92 39755 26669 28545.3 34763.6 24950.6 
28002.9 34468.8 23140.6 27010.9 36531.2 22367.2 27755 19057.2 42976.6 
27210.9 17917.2 41960.9 13679.2 39981.6 16466.5 7223.35 19329.6 26498.8 
8648.44 17917.2 25460.9 27706.5 35942.3 23681 27014 37562.5 23398.4 
7770.23 19993.3 24128.4 9164.06 19464.1 22367.2 25921.9 32148.4 18858.9 
7398.97 25442.3 17919.1 7857.47 25960.9 16179.7 19476.6 42257.8 18757.8 
28477.7 21944.1 32011.2 28500 22277.3 30875 28035 34346.5 23358.9 
27497.6 33695.3 21851.6 22791.1 33988.6 14646 22161.9 33437.5 13085.9 
26569.7 22463.5 26408.4 26179.7 23077.6 24945.3 25944.5 18267.9 31707.8 
8855.92 14592.1 30949.6 9997.31 14359.4 29070.3 28373.8 22108.3 31147 
24542.8 15779.6 38261.5 24375 15008 39898.4 8799.1 13303.1 34052.8 
25664.1 24156.2 22741.5 27292.8 22891.3 27450.2 26447.8 20804.7 28039.1 
9396.5 12423.9 34924.7 10710.9 11263.6 36289.1 9369.49 12334.9 34977.4 
8849.53 12296.9 36546.9 26920.4 17154.6 45769.4 26437.5 16084.7 47632.8 
10073.4 36133 12031.3 12000 37103.6 11281.2 6480.75 35757.8 17468.8 
26597.7 21449.7 27688.6 25406.2 20195.2 27007.8 22286.1 11354.8 44459.3 
21281.2 10897.5 43507.8 22218.1 27224.8 13897 21844.3 27507.8 12828.1 
6268.31 12554.7 41187.5 28470.5 28007.2 25051.3 27726.6 28539.1 23591.3 
8384.75 37818.6 17868.8 9164.06 37622.3 15921.9 22326.2 25586.9 15672.5 
22828.1 24363.5 17210.9 21608.5 26520.6 13329.2 21138.9 24671.9 14117.2 
25492.2 26078.1 20640.3 24375 25703.1 18948.6 24612.7 25912.7 19198.2 
23918.2 26476.6 17468.8 22632.4 16983.8 27555.2 21023.4 16361 26750 
28876.8 26675.3 27008.5 28242.2 26375.5 25718.8 22245.7 18768.9 24333.9 
23505.7 20031.2 23656.2 28851.6 29570.7 25284.2 28242.2 30501.5 23656.2 
18948.9 18048.1 21723.4 19218.8 19133 20046.9 17696.4 13332 29971.1 
16125 13270.4 28812.5 27203.8 30091.1 21745.5 26695.3 31375 20512 
19460.6 15152.5 27533.5 18703.1 15132.8 26360.2 20547.5 21180.5 18215.6 
20507.8 22042.2 16953.1 20194.1 21097.9 17873.3 18187.5 19773.4 18109.2 
6074.13 29563.4 43573.5 4824.46 28816 39788.8 29371.4 35906.7 37425.4 
14695.3 41205.1 30888.1 5453.52 34303.9 38733.9 5765.06 35500 37835.9 
5944.5 23640.6 49437.5 5009.05 25253.5 26308.9 29202.5 24954 46576.9 
17136.5 41586.7 26574 17414.1 41745.2 24687.5 29325.4 23435.9 44056.7 
29015.6 21205.8 42476.6 29866.8 32664.2 27392.6 29593.1 31375 26750 
27726.6 19123.8 45828.1 29641.5 31395.7 26808.1 29531.2 30343.8 26406.6 
8527.16 21987.1 20088.6 9421.88 21695.7 18757.8 29992.8 32483.6 27428.6 
30564.6 31117.2 28554.7 6585.94 26686.9 18242.2 28500 23125 29761.2 
28168.9 19813.4 37898.1 27468.8 18623.6 36804.7 8784.98 19686.4 22698.3 
9144.47 20031.2 21335.9 7105.89 25943.5 17921.7 6843.75 27250 16902.6 
22666.7 36454.8 15515.8 22221.8 35757.8 14375 9624.31 20927 19909.6 
11226.6 20289.1 18962 13690.2 40656.2 19273.4 8648.44 25703.1 15021.6 
7328.44 31890.6 13085.9 25455.5 16715.4 38131.2 24890.6 16039.3 36804.7 
22858.2 33241.9 14456.3 23720.2 32148.4 15406.2 9171.9 12320.5 35573.8 
7875 13162.1 36031.2 23185.7 32826.4 14817.3 23203.5 31117.2 14375 
26953.1 20652.1 29585.9 25200.8 14273.7 45527.7 25480.5 14617.2 46859.4 
25206.8 17471.6 31666.3 23353.1 12064.3 44631.1 23208.7 12554.7 43250 
23198.3 29470.2 14818.5 22875.6 28539.1 14375 22728.9 29625.9 13840.6 
22341.4 30601.6 12570.3 26254.7 26329.5 22013.4 26293.1 27250 21335.9 
22312.9 30436.3 12688.1 21796.9 31126.5 11539.1 22921.2 34863.4 15279 
23428.3 33695.3 15664.1 22332.8 30552 12605.7 22331.1 31890.6 12828.1 
21452.5 10471.8 44563.5 19992.2 9718.75 43973.9 21425.6 26309.3 13159 
20765.6 26168.2 11796.9 21370.8 26245.9 13107.8 20765.6 25137 12828.1 
9017.01 10708.6 40727.1 9421.88 9460.94 42333.2 8874.9 37822.3 17003.5 
9937.5 38335.9 16555.1 9122.09 37622.4 15997.4 9421.88 37237.7 14375 
25112.2 27762.5 18837.7 24739 28796.9 17468.8 24109 26468.7 17899.6 
23941.9 27507.8 17210.9 23127.2 19798.7 23694.8 23232.4 20804.7 22625 
17225 13067.5 30164.9 17156.2 12446.4 31648.4 18938.2 17993.1 21838.3 
19992.2 18630.8 21593.8 17184.6 12175.5 33144.4 15609.4 11729.7 32421.9 
24384.5 22518.8 22139.5 24890.6 23640.6 21543.2 23796 22943.2 20674.7 
24392.5 24414.1 19789.1 19140.5 19087.4 20148.4 19218.8 19773.4 19131.1 
5750.83 35275.8 37834.6 6070.31 36066.2 36804.7 5296.88 28023.4 42553.9 
5319.36 26844 42712.5 5039.06 26780.8 41960.9 29575.6 24414.1 45312.5 
17203.1 41707.2 24923.7 4739.28 27195.1 23118.5 5227.78 26476.6 22109.4 
6860.04 21735.6 23251.3 6645.75 22609.4 22625 24890.6 37847.1 19273.4 
28962.3 21484.4 42855.8 28559.8 20289.1 42476.6 4705.97 33179.7 27007.8 
28500 37868.8 27007.8 29607.6 31381.2 26767.4 29531.2 31375 25913.7 
28451.1 38006.8 27261.8 29062 36789.1 27265.6 7650.91 18905.9 26187.5 
7933.78 19000 24945.3 28556.7 32664.1 24171.9 5842.92 29731.5 17945.3 
6070.31 30297.3 16695.3 7875 17453.1 27209.9 30393 31527.1 28216.9 
30046.9 29769.3 27781.2 8438.06 18248 25476.9 9037.22 17968.8 24687.5 
29507 26229.9 29014.5 29577.7 26734.4 28554.7 27468.8 19653.8 33195.3 
9793.43 23510.9 16197.7 10453.1 23382.8 15521.8 7359.38 38460.7 25460.9 
8510.97 26047.2 15051.9 8648.44 24618.2 16695.3 8170.66 15206 31259.8 
8390.62 15109.1 30101.6 8282.76 14052.3 33451.8 8836.12 13585.9 33195.3 
13592.7 40619.9 19528.7 14755.5 41171.9 19273.4 9894.29 24208.8 14921.8 
11083.2 23898.4 13859.4 9644.73 14512.2 29469.4 9679.69 15001.8 28296.9 
8558.72 39109.4 21335.9 21281.2 42260.9 24429.7 23859.4 16053.7 31906.2 
23150.2 31578.7 14386.1 22857 31117.2 13601.6 10968.8 11725.6 34226.6 
24423.7 15040.3 39856.9 24375 14552.2 40929.7 23343.8 16421.9 30153.1 
22878.3 33017.9 14399.4 22388.8 32406.2 13601.6 9080.43 11972.9 38125.2 
9679.69 11748.2 37062.5 22892.5 28754.4 14386.4 22374.4 28281.2 13601.6 
8197.47 38179 19165.3 8648.44 38596.8 18757.8 21928.1 30720.1 11924.9 
21149.3 30343.8 10765.6 9319.47 11798.4 38103.1 10195.3 11194.5 39125 
[...]
CELL_DATA 1299
SCALARS radius float
LOOKUP_TABLE default
100 92.9635 89.6332 96.4176 92.9635 89.6332 86.4222 89.6332 86.4222 
83.3262 83.3262 83.3262 89.6332 80.3411 83.3262 83.3262 77.463 80.3411 
83.3262 80.3411 86.4222 80.3411 74.6879 74.6879 80.3411 80.3411 77.463 
77.463 74.6879 72.0123 74.6879 72.0123 69.4326 60.0051 69.4326 72.0123 
62.2346 77.463 77.463 62.2346 69.4326 64.547 66.9452 60.0051 69.4326 
62.2346 77.463 74.6879 64.547 60.0051 69.4326 57.8555 57.8555 72.0123 
69.4326 62.2346 62.2346 74.6879 72.0123 64.547 69.4326 64.547 53.7845 
72.0123 74.6879 66.9452 62.2346 66.9452 72.0123 60.0051 69.4326 64.547 
66.9452 60.0051 60.0051 66.9452 60.0051 62.2346 51.8578 66.9452 57.8555 
64.547 53.7845 66.9452 55.7829 62.2346 55.7829 72.0123 62.2346 64.547 
57.8555 69.4326 62.2346 60.0051 53.7845 62.2346 53.7845 55.7829 48.2088 
60.0051 69.4326 62.2346 57.8555 51.8578 62.2346 55.7829 60.0051 53.7845 
62.2346 66.9452 57.8555 57.8555 46.4818 55.7829 50 53.7845 48.2088 
66.9452 57.8555 64.547 57.8555 60.0051 62.2346 57.8555 53.7845 46.4818 
55.7829 50 64.547 62.2346 53.7845 60.0051 51.8578 64.547 60.0051 
60.0051 50 64.547 60.0051 55.7829 48.2088 64.547 57.8555 62.2346 
53.7845 53.7845 48.2088 51.8578 46.4818 62.2346 53.7845 57.8555 60.0051 
51.8578 51.8578 48.2088 80.3411 80.3411 77.463 72.0123 77.463 83.3262 
77.463 72.0123 64.547 60.0051 69.4326 66.9452 64.547 60.0051 64.547 
66.9452 62.2346 55.7829 55.7829 66.9452 60.0051 64.547 64.547 57.8555 
62.2346 60.0051 62.2346 55.7829 60.0051 66.9452 64.547 69.4326 55.7829 
51.8578 57.8555 55.7829 57.8555 55.7829 66.9452 64.547 66.9452 62.2346 
55.7829 53.7845 60.0051 53.7845 60.0051 64.547 69.4326 64.547 57.8555 
53.7845 55.7829 51.8578 64.547 60.0051 64.547 60.0051 51.8578 66.9452 
62.2346 55.7829 53.7845 53.7845 51.8578 50 62.2346 57.8555 57.8555 
50 53.7845 51.8578 51.8578 50 60.0051 53.7845 57.8555 51.8578 
62.2346 55.7829 66.9452 64.547 62.2346 55.7829 62.2346 60.0051 51.8578 
46.4818 51.8578 50 60.0051 57.8555 57.8555 53.7845 57.8555 55.7829 
55.7829 51.8578 83.3262 74.6879 80.3411 77.463 80.3411 72.0123 72.0123 
74.6879 69.4326 74.6879 69.4326 74.6879 69.4326 64.547 57.8555 64.547 
62.2346 60.0051 66.9452 62.2346 62.2346 57.8555 62.2346 51.8578 69.4326 
64.547 57.8555 53.7845 64.547 62.2346 60.0051 57.8555 64.547 62.2346 
60.0051 60.0051 60.0051 62.2346 60.0051 55.7829 50 53.7845 48.2088 
53.7845 50 50 57.8555 55.7829 62.2346 55.7829 53.7845 60.0051 
55.7829 57.8555 51.8578 64.547 60.0051 55.7829 50 60.0051 57.8555 
53.7845 51.8578 53.7845 51.8578 50 44.8166 48.2088 44.8166 50 
48.2088 53.7845 51.8578 51.8578 50 60.0051 55.7829 55.7829 53.7845 
60.0051 55.7829 50 48.2088 53.7845 48.2088 50 46.4818 60.0051 
55.7829 57.8555 55.7829 50 46.4818 74.6879 69.4326 72.0123 74.6879 
69.4326 64.547 72.0123 69.4326 62.2346 62.2346 60.0051 62.2346 72.0123 
66.9452 74.6879 64.547 60.0051 57.8555 69.4326 66.9452 62.2346 60.0051 
64.547 72.0123 69.4326 64.547 60.0051 57.8555 60.0051 57.8555 69.4326 
66.9452 57.8555 60.0051 57.8555 60.0051 62.2346 60.0051 64.547 60.0051 
62.2346 60.0051 62.2346 57.8555 55.7829 51.8578 57.8555 53.7845 62.2346 
69.4326 57.8555 51.8578 50 55.7829 55.7829 51.8578 60.0051 53.7845 
51.8578 51.8578 50 57.8555 55.7829 60.0051 55.7829 53.7845 51.8578 
50 46.4818 51.8578 50 53.7845 51.8578 60.0051 57.8555 46.4818 
44.8166 50 48.2088 55.7829 53.7845 57.8555 55.7829 57.8555 55.7829 
57.8555 53.7845 48.2088 46.4818 55.7829 51.8578 51.8578 50 57.8555 
55.7829 48.2088 46.4818 53.7845 51.8578 77.463 77.463 86.4222 80.3411 
80.3411 72.0123 80.3411 74.6879 77.463 72.0123 77.463 72.0123 69.4326 
74.6879 66.9452 69.4326 69.4326 66.9452 74.6879 72.0123 66.9452 86.4222 
77.463 74.6879 69.4326 74.6879 69.4326 77.463 72.0123 80.3411 72.0123 
72.0123 66.9452 69.4326 66.9452 64.547 74.6879 72.0123 72.0123 72.0123 
69.4326 66.9452 69.4326 69.4326 62.2346 72.0123 74.6879 72.0123 69.4326 
66.9452 64.547 66.9452 62.2346 69.4326 66.9452 77.463 74.6879 62.2346 
66.9452 62.2346 64.547 60.0051 74.6879 66.9452 57.8555 72.0123 69.4326 
66.9452 64.547 64.547 62.2346 66.9452 64.547 60.0051 55.7829 55.7829 
53.7845 64.547 60.0051 64.547 62.2346 62.2346 60.0051 62.2346 60.0051 
66.9452 64.547 57.8555 55.7829 62.2346 60.0051 72.0123 64.547 62.2346 
55.7829 74.6879 64.547 66.9452 62.2346 66.9452 62.2346 64.547 55.7829 
62.2346 57.8555 62.2346 57.8555 66.9452 64.547 69.4326 64.547 64.547 
60.0051 64.547 62.2346 69.4326 66.9452 64.547 62.2346 66.9452 62.2346 
64.547 60.0051 64.547 62.2346 55.7829 53.7845 64.547 62.2346 62.2346 
60.0051 53.7845 51.8578 62.2346 55.7829 57.8555 53.7845 55.7829 51.8578 
57.8555 53.7845 57.8555 55.7829 62.2346 60.0051 51.8578 48.2088 53.7845 
51.8578 55.7829 53.7845 50 44.8166 55.7829 51.8578 60.0051 55.7829 
57.8555 53.7845 60.0051 55.7829 55.7829 53.7845 55.7829 51.8578 53.7845 
51.8578 50 46.4818 55.7829 53.7845 48.2088 46.4818 53.7845 51.8578 
80.3411 66.9452 96.4176 86.4222 92.9635 86.4222 89.6332 77.463 86.4222 
77.463 86.4222 77.463 83.3262 69.4326 83.3262 77.463 80.3411 72.0123 
74.6879 66.9452 72.0123 69.4326 80.3411 72.0123 74.6879 66.9452 69.4326 
60.0051 92.9635 80.3411 74.6879 69.4326 66.9452 60.0051 69.4326 60.0051 
86.4222 77.463 62.2346 57.8555 60.0051 53.7845 62.2346 53.7845 60.0051 
51.8578 64.547 60.0051 83.3262 72.0123 57.8555 53.7845 77.463 74.6879 
55.7829 53.7845 86.4222 74.6879 62.2346 57.8555 57.8555 53.7845 83.3262 
80.3411 55.7829 53.7845 77.463 66.9452 77.463 69.4326 55.7829 51.8578 
80.3411 74.6879 53.7845 50 77.463 72.0123 51.8578 44.8166 77.463 
72.0123 48.2088 44.8166 50 44.8166 74.6879 64.547 80.3411 74.6879 
77.463 72.0123 74.6879 72.0123 77.463 74.6879 72.0123 62.2346 74.6879 
66.9452 74.6879 66.9452 46.4818 44.8166 69.4326 64.547 77.463 72.0123 
72.0123 64.547 77.463 72.0123 69.4326 66.9452 83.3262 77.463 74.6879 
69.4326 74.6879 72.0123 66.9452 62.2346 69.4326 64.547 66.9452 64.547 
74.6879 69.4326 69.4326 62.2346 77.463 72.0123 72.0123 64.547 74.6879 
69.4326 69.4326 64.547 66.9452 64.547 66.9452 64.547 66.9452 60.0051 
72.0123 69.4326 69.4326 64.547 74.6879 69.4326 66.9452 60.0051 72.0123 
69.4326 83.3262 74.6879 69.4326 64.547 62.2346 60.0051 66.9452 60.0051 
80.3411 74.6879 69.4326 62.2346 69.4326 66.9452 72.0123 64.547 77.463 
72.0123 60.0051 57.8555 72.0123 66.9452 69.4326 62.2346 72.0123 69.4326 
66.9452 64.547 66.9452 64.547 77.463 74.6879 69.4326 64.547 66.9452 
64.547 66.9452 62.2346 64.547 62.2346 64.547 62.2346 66.9452 64.547 
74.6879 72.0123 62.2346 60.0051 72.0123 69.4326 64.547 62.2346 69.4326 
64.547 64.547 55.7829 69.4326 66.9452 64.547 62.2346 60.0051 55.7829 
60.0051 57.8555 57.8555 55.7829 64.547 60.0051 66.9452 62.2346 64.547 
62.2346 69.4326 66.9452 57.8555 55.7829 72.0123 69.4326 64.547 62.2346 
69.4326 66.9452 62.2346 60.0051 62.2346 60.0051 60.0051 57.8555 64.547 
62.2346 62.2346 60.0051 53.7845 50 66.9452 64.547 51.8578 50 
60.0051 55.7829 57.8555 55.7829 60.0051 57.8555 51.8578 50 60.0051 
57.8555 62.2346 60.0051 64.547 62.2346 64.547 62.2346 55.7829 53.7845 
57.8555 55.7829 60.0051 57.8555 60.0051 57.8555 53.7845 51.8578 51.8578 
50 48.2088 46.4818 62.2346 60.0051 46.4818 44.8166 51.8578 50 
46.4818 44.8166 53.7845 51.8578 57.8555 55.7829 57.8555 55.7829 53.7845 
50 51.8578 50 50 48.2088 48.2088 46.4818 62.2346 60.0051 
55.7829 53.7845 50 48.2088 72.0123 69.4326 89.6332 86.4222 80.3411 
77.463 83.3262 80.3411 80.3411 77.463 80.3411 72.0123 77.463 74.6879 
72.0123 69.4326 77.463 74.6879 66.9452 64.547 83.3262 80.3411 83.3262 
80.3411 55.7829 53.7845 80.3411 72.0123 80.3411 74.6879 77.463 74.6879 
57.8555 53.7845 55.7829 53.7845 74.6879 72.0123 86.4222 77.463 60.0051 
55.7829 80.3411 74.6879 77.463 74.6879 83.3262 74.6879 74.6879 72.0123 
80.3411 77.463 74.6879 72.0123 72.0123 69.4326 74.6879 69.4326 80.3411 
74.6879 74.6879 69.4326 77.463 74.6879 72.0123 69.4326 72.0123 69.4326 
72.0123 69.4326 74.6879 72.0123 74.6879 69.4326 69.4326 66.9452 66.9452 
64.547 74.6879 69.4326 69.4326 64.547 64.547 62.2346 72.0123 69.4326 
74.6879 69.4326 72.0123 69.4326 66.9452 64.547 72.0123 66.9452 69.4326 
66.9452 72.0123 69.4326 64.547 62.2346 74.6879 69.4326 80.3411 74.6879 
66.9452 64.547 69.4326 66.9452 64.547 62.2346 80.3411 77.463 74.6879 
69.4326 64.547 62.2346 66.9452 64.547 66.9452 64.547 72.0123 69.4326 
64.547 62.2346 64.547 62.2346 72.0123 69.4326 74.6879 69.4326 72.0123 
69.4326 66.9452 64.547 66.9452 64.547 64.547 62.2346 64.547 62.2346 
64.547 62.2346 69.4326 66.9452 64.547 62.2346 74.6879 72.0123 60.0051 
57.8555 66.9452 64.547 66.9452 64.547 66.9452 64.547 72.0123 69.4326 
62.2346 60.0051 57.8555 55.7829 66.9452 64.547 72.0123 66.9452 66.9452 
64.547 57.8555 55.7829 62.2346 60.0051 62.2346 60.0051 69.4326 66.9452 
60.0051 57.8555 69.4326 66.9452 57.8555 55.7829 60.0051 57.8555 66.9452 
64.547 64.547 62.2346 60.0051 57.8555 48.2088 46.4818 60.0051 57.8555 
57.8555 55.7829 57.8555 55.7829 64.547 62.2346 51.8578 50 50 
48.2088 57.8555 55.7829 60.0051 57.8555 57.8555 55.7829 60.0051 57.8555 
66.9452 64.547 62.2346 60.0051 53.7845 51.8578 62.2346 60.0051 53.7845 
51.8578 55.7829 53.7845 57.8555 55.7829 60.0051 57.8555 55.7829 53.7845 
48.2088 46.4818 51.8578 50 51.8578 50 57.8555 55.7829 48.2088 
46.4818 57.8555 55.7829 55.7829 53.7845 57.8555 55.7829 62.2346 60.0051 
53.7845 51.8578 55.7829 53.7845 62.2346 60.0051 48.2088 46.4818 69.4326 
66.9452 74.6879 72.0123 77.463 74.6879 83.3262 80.3411 72.0123 69.4326 
77.463 74.6879 77.463 74.6879 72.0123 69.4326 74.6879 72.0123 64.547 
62.2346 64.547 62.2346 89.6332 86.4222 62.2346 60.0051 86.4222 83.3262 
74.6879 72.0123 80.3411 77.463 53.7845 51.8578 77.463 74.6879 55.7829 
53.7845 72.0123 69.4326 80.3411 77.463 69.4326 66.9452 57.8555 55.7829 
77.463 72.0123 46.4818 44.8166 74.6879 72.0123 77.463 74.6879 72.0123 
66.9452 69.4326 66.9452 77.463 74.6879 72.0123 69.4326 77.463 74.6879 
48.2088 46.4818 46.4818 44.8166 77.463 74.6879 64.547 62.2346 66.9452 
64.547 72.0123 69.4326 72.0123 69.4326 89.6332 86.4222 72.0123 69.4326 
72.0123 69.4326 66.9452 64.547 72.0123 69.4326 69.4326 66.9452 69.4326 
66.9452 66.9452 64.547 74.6879 72.0123 74.6879 72.0123 72.0123 69.4326 
72.0123 69.4326 62.2346 60.0051 77.463 74.6879 77.463 74.6879 72.0123 
69.4326 69.4326 66.9452 
