# vtk DataFile Version 4.1
vtk output
ASCII
DATASET POLYDATA
POINTS 1300 float
16125 47875 54078.1 15403.1 46111.5 52453.9 15186.6 45582.4 51966.6 
18196.3 44161.6 47872.3 12548.2 42868.3 45414.2 19092.5 43914.6 47343.8 
22641.1 41624.9 46664.6 11940.3 41869.7 43114.1 17865 42409.4 43059.4 
9973.2 39717.1 42056.1 8445.59 37287.5 42948.1 27561.7 37308.9 44793.7 
23478 39969 40901.7 6969.15 36625.5 36951.3 16442.7 41548.3 38003.6 
16039.8 41325.2 37525.3 7406.09 33117 44866.5 5751.66 26218.8 44281.2 
5309.25 33766.7 34170.4 28305 36537.9 41214.7 28045.2 38078.1 35000 
22654.5 40501.3 34690.4 5990.29 27864.7 43979.7 16634.4 41394.4 31843.4 
5823.23 26712.5 44190.8 6128.06 22609.4 47890.6 29946.6 33753.7 43020.5 
4593.36 31673.3 31917.5 4207.87 30343.8 27265.6 16947.8 41447.3 28769.9 
30450.6 33849.2 37822.6 22879.3 41212.1 28800.1 30938.2 33741.5 37290.5 
9159.94 39170.3 33421 4323.48 30923.1 31729.2 4321 26955.2 30428.9 
30846.9 34216.8 33035.4 12853.3 40878.4 28888.1 15702.6 41357.2 25284.4 
4354.42 30402.6 27362.6 4732.99 25208.4 26957.8 5554.69 25187.5 22225.9 
31205.7 29271.9 40348.4 29788.9 27851.8 44514.9 31034.9 30374.7 34686.4 
30820.3 27921.3 31390.6 29958.4 36378.3 30440.3 30280.7 35290.8 31075.6 
28362.9 38270.8 30535.8 23552 41038.6 25728.9 24345.9 39750.8 22904.4 
7127.14 37503.4 31819.3 24836.7 38872.1 21538.6 29176.3 24120.2 44808.4 
6473.53 20804.7 25718.8 23397.8 39999.2 20278.7 21796.9 39882.8 17069.7 
5664.1 24842.1 23468.7 8390.62 22668.2 19273.4 16304.4 41687.5 16953.1 
4398.55 29606.8 23891.3 5248.41 29312.5 19273.4 4426.09 30783.8 28729.1 
29995.9 35275.1 29529.9 30101 23966.9 38628 5045.35 29680.7 20339.8 
5437.12 31375 17984.4 25277.3 38496.8 21216.3 26467.4 34726.6 20304.7 
5187.46 29423 19593.3 6328.12 26168.2 19015.6 5430.63 20781.1 31055.6 
6300.28 17195.3 31906.2 28610.5 21257.9 43717.6 15810.4 41465.8 23437.4 
12515.6 40512.9 21078.1 30541 28013.1 32012.1 6519.32 20972.8 25937.9 
8132.81 18106.9 25718.8 6487.25 20855.1 25784.5 24061.5 39825.4 22116.7 
21281.2 42256.8 21335.9 7983.9 23563.9 19677.5 10054 23382.8 15921.9 
5230.15 29345.6 19369.4 6760.22 29054.7 16179.7 15927.4 41452.6 17721.4 
5514.88 31274.8 18349 6274.5 33437.5 15921.9 29341.2 21697.8 38073.5 
27022.2 19257.8 33453.1 6451.67 17620.9 31778.4 10968.8 19666.2 19789.1 
8936.16 23480.6 17949.9 8192.62 26218.8 15406.2 29506.4 25757.9 30068.3 
27210.9 22725.9 27265.6 6526.74 29364.4 16406.4 7674.94 29828.1 13343.8 
25830.1 35540.8 20179.8 6257.38 32889.7 16207.2 7617.19 33695.3 13278.8 
23689 36925.7 17355.6 25406.2 16362.1 38351.6 6145.39 18568.9 31561.6 
8906.25 15390.6 29120.8 27124.3 19619.3 33710.2 13632.7 40722.6 21362.5 
27722.4 23629.4 27697.5 26437.5 23332.3 24945.3 8648.44 12803.2 34742.2 
7056.6 37985.3 26076.3 8390.62 39166.1 22882.8 7652.25 29535.3 13590.9 
8906.25 29312.5 10726.4 7771.98 38564.4 23711.8 6968.53 16495.4 32143.9 
6300.28 15132.8 36546.9 8305.14 16269.9 29484 9937.5 15541.2 27007.8 
23399.4 29570.3 15148.4 27052.8 19366.3 33530.3 8882.53 13252.1 34336.8 
10710.9 11696.7 35773.4 7357.31 33754.4 14438.8 8718.66 12937.9 34620.6 
8390.62 12424.8 37578.1 26823 23421.4 25771 25756.9 18472.2 31568.3 
8490.35 13828.8 33807.6 11453.4 11781.2 32937.5 25006 14329.2 44902.4 
22187.7 11523.4 43765.6 22341.4 30601.6 12570.3 23598 29789.7 15587.3 
24184.6 17037 30722.1 22570.3 17195.3 27221.3 6843.75 36426.1 17726.6 
8281 12617.6 37068.4 6974.72 12812.5 39640.6 8357.73 12482.6 37425.2 
9937.5 11205.8 39125 22393.7 11733.6 44182.8 26756.8 25433.1 23798.3 
27536.8 28539.1 23140.6 25406.2 27208.8 19531.2 23212.4 28935.3 15146.3 
22582.5 27539.7 14425.9 20846.1 26992.2 11539.1 20765.6 24623.4 13343.8 
7278.22 36974.9 18586.2 8648.44 37092.2 15406.2 9209.23 11474.5 38863.3 
9587.91 9203.12 42476.6 22942.5 17505.6 27520 21774.9 26172 13880.7 
21539.1 23759.2 15921.9 21018.3 27371.6 11741 19476.6 27721.3 8960.94 
22682 17288.4 27310.9 19992.2 15540.2 26750 22321 18190.7 25257.2 
18960.9 16877.7 23656.2 22836.4 20289.1 22367.2 20744.1 14737.5 30076.8 
18187.5 12801.2 31390.6 20088.4 17691.4 23646.9 18187.5 17907.9 21335.9 
27433.3 28267 23423.3 28058.6 31117.2 23398.4 26420.9 23283.7 25071.5 
24694.7 22609.4 22367.2 18375.5 13070.6 31554.2 16382.8 11736.9 32937.5 
18243.9 12882 31439.7 16125 13252.8 29070.3 24652.3 22667.8 22510.7 
22570.3 22047.3 19789.1 26163.6 34809.9 20303.2 17458.9 12457.1 32190.5 
20131 15890.6 26857.3 17414.1 14793.5 26492.2 23194.9 22233.5 20605.6 
20765.6 19971.4 20304.7 22564 22052.5 19880.6 20250 21405.9 17468.8 
18700.7 18046.8 21635.1 18187.5 19317.6 19015.6 15850.7 47204.9 53460.9 
15399.5 44578.4 47509.8 20968.9 43727.5 49544.6 20574.9 42345 44839.8 
14944.1 43684.2 45068.5 14292.8 42279.6 41855.6 23362.5 40759.3 44630.5 
7966.16 36959.3 42855.3 25350.4 39120.7 43114.3 7161.69 36640.9 41081.8 
6377.01 34621.3 41018.9 22426.6 40462.2 34434.2 14464.7 41082.3 36019.8 
6208.19 30307.8 43460 5261.81 29054.7 41960.9 29200.4 35425.5 40222.9 
28295 36984.4 38368.8 5835.49 32460.7 40972 24479.3 38972.6 38840 
19204.8 40836 33792.8 27411.4 39399.2 30592.8 25406.2 39824 32937.5 
29341.8 36262.9 36909 19091.7 41191.7 31011.1 4407.94 30859.4 36804.7 
27993.1 37995.7 35355.8 29531.2 37364.5 34226.6 27992.1 37996.9 35374.1 
4847.25 29739.1 39034.7 4207.87 28281.2 36804.7 31279.9 32297 35870.2 
29189.4 37526.6 34314.9 30056.2 37304.7 32679.7 12090.5 40880 32321.1 
4431.65 28502.8 37621.2 4207.87 26218.8 37062.5 18512.3 41717.3 26252.7 
4251.81 30361.4 27294.7 4207.87 27507.8 26492.2 31614.4 27728.5 38012.9 
27431 39628 28156.3 25448.5 41171.9 26234.4 4221.07 28363.9 26732.9 
4265.62 27735.7 24171.9 29674.3 36834.2 29625.9 8390.62 39483.7 29585.9 
9371.34 39882.8 24945.3 15778.1 41433.2 23991.5 9862.22 40045.8 25599.4 
10453.1 40201.5 23914.1 5355.24 35061.2 30046.7 30736.6 27948.9 31577.1 
5633.37 23052.9 25704.3 6425.06 22093.8 23914.1 4467.96 27584.2 24689.1 
28352.5 36015.6 24945.3 6361.12 22400.7 24014.6 7101.56 22093.8 22226.9 
28995.7 23529.1 45303.8 28056.6 21320.3 47375 29078.5 25445.3 47632.8 
28458.9 22125.7 46303.9 5641.31 25130.3 22328.6 5962.03 25445.3 20562.5 
22604.1 40168.1 19163.2 29772.7 33566.7 27929.6 29533.3 33179.7 25976.6 
27008.8 38851.6 24945.3 28125.1 21425.9 47336.1 8138.49 23223.5 19523.9 
8330.81 21578.1 20820.3 28480.9 35734.8 25153.3 27509 35757.8 22882.8 
27530.6 19515.6 47632.8 7129.92 19516 26257.1 7317.09 18226.6 27265.6 
29457.5 33320.3 26215.1 28529.9 33437.5 23914.1 8650.5 23505.6 18468.2 
9679.69 22208.2 17984.4 27210.9 17917.2 42218.8 8378.97 22807.1 19457.3 
9370.31 21320.3 19531.2 8506.12 24567.2 17195.8 7298.53 25960.9 17468.8 
7885.93 18616.9 25726.7 8876.34 18226.6 24429.7 28033.8 35745.4 24108.9 
27014 37562.5 23398.4 28324.9 19990 37941.5 27468.8 19099 35773.4 
9356.29 21616.8 19363.2 10453.1 20679.9 19015.6 29816.8 26434.5 30651.4 
29541.6 26734.4 28296.9 9718.67 23412.2 16530.3 9555.94 24671.9 14890.6 
5755.78 36531.2 25203.1 27834.4 35750.1 23643 27833.8 34468.8 22882.8 
6706.28 29086.1 16169.1 7359.38 27973.9 15148.4 12726.1 40472.7 21033.3 
11226.6 39701.3 20046.9 27603.8 19180.4 36496.2 26293.1 17453.1 35515.6 
22809.2 35074.1 15021.1 22368.2 34726.6 14117.2 23363.7 41513.6 24733.1 
6675.35 33218.3 15535.2 6843.75 32148.4 14038.8 10284.5 40114.8 24080.4 
10388.2 39882.8 21851.6 9604.71 24294 15382.5 10968.8 24352.2 13085.9 
8377.22 25874.2 15564.5 8906.25 26942.7 13085.9 7485.81 37978.6 21891 
6070.31 36560.1 21335.9 7649.77 33829 13514.2 8648.44 34468.8 11397.8 
25509.2 16504.6 38483.1 6913.77 14986.6 35161.7 7299.56 13843.8 36289.1 
8210.16 38952.4 22956.4 13031.2 39489.9 15921.9 9307.82 15710.3 28217 
10453.1 14511 28039.1 9318.23 35795 12657.8 9937.5 36177.5 11281.2 
24735.9 15537.8 39140.3 24117.2 14359.4 40838.9 6536.65 14973.4 36278.6 
6454.97 14359.4 38093.8 26844.5 17230.1 45138.2 25921.9 15053.4 47117.2 
12963.2 39598.6 16499.2 27228.9 22845.5 27379.1 11742.2 37118 11796.9 
27075.2 27014.3 23363.3 26953.1 28023.4 21843.3 22880 33958.7 14629.2 
23888.2 32664.1 15664.1 22284.8 31292.5 12663.2 21651.5 30601.6 11281.2 
21678.3 30533.9 11564.6 21023.4 29570.3 10714.1 7366.59 12754 38868.9 
7875 11612.1 40156.2 23505.1 33156 15270.8 24442 33695.3 16953.1 
9070.94 10708 40453.5 8390.62 10684 41445.3 8628.74 10576.8 41206.5 
8390.62 9857.97 42218.8 27182.6 27390.1 23381.3 28500 28015.2 24945.3 
22548.8 17611 26656.9 21328.7 16937.5 25718.8 25527.1 27269.2 19857.8 
24938.1 28539.1 17984.4 28104.8 27827.7 24476.1 28500 26734.4 25903.3 
29015.6 30085.9 25345.4 22567 19172.3 23888.3 23869.7 20289.1 23914.1 
17375.2 12921.7 30684.8 16125 12450.5 30617.2 21204.3 20225.6 20665.6 
20250 18940.2 21335.9 26994.4 30085.9 21335.9 17929.7 13826.2 28554.7 
25304.7 23084.7 23206.4 24890.6 24105.7 21078.1 26485.1 32939.8 20462.7 
21409.2 21475.7 19059.6 20423.3 20546.9 19015.6 20332.2 21459.4 17616.9 
19218.8 21517.3 16179.7 16640.6 43607.7 44796.9 20093.5 42740.4 45358.7 
13484 41735.6 40761.9 12515.6 41182.2 39640.6 10342 40780.4 44388 
5244.28 34984.4 33195.3 4727.62 33437.5 31648.4 19465 40985.8 32669.3 
5414.75 29022.6 42151.8 4726.59 27507.8 40929.7 13211.7 41171.9 37062.5 
26152.2 39853.1 31459.5 24632.8 40656.2 31678.3 15187.4 41164.6 30291.6 
5789.19 24723.3 45392.8 5440.22 23125 45312.5 4722.47 32406.2 36289.1 
30407.8 30324.2 43214.2 31123.5 28539.1 42734.4 10073 39830.7 38385.8 
11484.4 40524.2 38609.4 19466.8 41441.9 29246.3 20250 41745.2 27781.2 
13809.7 41049.9 29661.5 12515.6 41224.5 30101.6 4523.44 23382.8 41768.1 
8648.44 39474.4 31390.6 5984 22927.5 47216.2 5752.69 20804.7 47890.6 
6084.85 22704.8 47688.3 6270.37 23640.6 48921.9 31569.7 28195.1 38776.4 
32109.4 28979.4 37320.3 31595.8 32664.1 32164.1 4470.74 31533 27584.5 
4207.87 31375 25718.8 29679.3 37472 33107.6 29531.2 37945.1 31648.4 
4279.44 26733.1 36952.6 4207.87 25445.3 36031.2 29768.6 25720.5 44261.9 
30046.9 24643 43765.6 4954.71 25331.2 25412.6 4726.59 25960.9 24429.7 
4394.02 25707.4 30303.4 4416.19 24156.2 29328.1 31154.4 29828.1 32164.1 
[...]
CELL_DATA 1299
SCALARS radius float
LOOKUP_TABLE default
96.4176 92.9635 92.9635 89.6332 89.6332 86.4222 86.4222 89.6332 83.3262 
80.3411 83.3262 80.3411 80.3411 86.4222 83.3262 77.463 64.547 77.463 
80.3411 66.9452 77.463 72.0123 83.3262 69.4326 57.8555 80.3411 74.6879 
64.547 80.3411 74.6879 74.6879 72.0123 77.463 72.0123 69.4326 69.4326 
74.6879 74.6879 69.4326 66.9452 57.8555 77.463 69.4326 69.4326 60.0051 
64.547 66.9452 62.2346 72.0123 69.4326 74.6879 66.9452 64.547 55.7829 
64.547 57.8555 62.2346 53.7845 57.8555 66.9452 55.7829 72.0123 64.547 
74.6879 62.2346 55.7829 64.547 55.7829 60.0051 57.8555 64.547 57.8555 
62.2346 69.4326 57.8555 66.9452 60.0051 50 57.8555 66.9452 57.8555 
60.0051 50 57.8555 50 62.2346 60.0051 55.7829 72.0123 62.2346 
60.0051 51.8578 55.7829 48.2088 62.2346 53.7845 53.7845 50 62.2346 
57.8555 48.2088 64.547 60.0051 62.2346 51.8578 69.4326 62.2346 60.0051 
53.7845 50 66.9452 57.8555 51.8578 46.4818 64.547 57.8555 50 
55.7829 50 53.7845 66.9452 53.7845 46.4818 53.7845 51.8578 46.4818 
57.8555 66.9452 55.7829 51.8578 53.7845 48.2088 51.8578 57.8555 64.547 
55.7829 51.8578 50 43.2111 48.2088 44.8166 50 55.7829 48.2088 
46.4818 55.7829 53.7845 46.4818 50 57.8555 51.8578 46.4818 43.2111 
60.0051 51.8578 48.2088 51.8578 50 57.8555 51.8578 55.7829 48.2088 
46.4818 60.0051 51.8578 53.7845 50 50 46.4818 55.7829 50 
55.7829 48.2088 53.7845 50 51.8578 44.8166 60.0051 53.7845 53.7845 
46.4818 50 46.4818 48.2088 41.6631 51.8578 43.2111 100 80.3411 
89.6332 80.3411 77.463 69.4326 83.3262 77.463 77.463 74.6879 72.0123 
74.6879 80.3411 74.6879 66.9452 77.463 74.6879 69.4326 77.463 72.0123 
60.0051 55.7829 72.0123 66.9452 60.0051 69.4326 64.547 72.0123 64.547 
60.0051 72.0123 66.9452 62.2346 72.0123 62.2346 57.8555 74.6879 66.9452 
57.8555 69.4326 57.8555 51.8578 62.2346 57.8555 62.2346 66.9452 62.2346 
72.0123 66.9452 62.2346 72.0123 64.547 62.2346 55.7829 60.0051 60.0051 
57.8555 50 62.2346 53.7845 60.0051 60.0051 60.0051 51.8578 62.2346 
62.2346 55.7829 55.7829 57.8555 57.8555 55.7829 62.2346 51.8578 53.7845 
55.7829 53.7845 57.8555 51.8578 57.8555 53.7845 51.8578 55.7829 50 
53.7845 48.2088 53.7845 51.8578 60.0051 57.8555 69.4326 62.2346 53.7845 
51.8578 64.547 57.8555 53.7845 48.2088 62.2346 57.8555 55.7829 51.8578 
50 60.0051 53.7845 66.9452 62.2346 60.0051 55.7829 69.4326 55.7829 
53.7845 64.547 57.8555 51.8578 48.2088 51.8578 46.4818 62.2346 60.0051 
51.8578 50 64.547 53.7845 50 60.0051 50 51.8578 50 
51.8578 50 62.2346 60.0051 51.8578 48.2088 57.8555 53.7845 55.7829 
57.8555 48.2088 53.7845 48.2088 57.8555 53.7845 53.7845 50 51.8578 
50 46.4818 44.8166 55.7829 50 44.8166 41.6631 43.2111 41.6631 
51.8578 44.8166 57.8555 53.7845 50 44.8166 48.2088 46.4818 50 
53.7845 51.8578 51.8578 48.2088 48.2088 44.8166 53.7845 53.7845 53.7845 
50 57.8555 46.4818 44.8166 43.2111 41.6631 69.4326 83.3262 66.9452 
64.547 83.3262 74.6879 69.4326 69.4326 69.4326 66.9452 80.3411 57.8555 
53.7845 80.3411 66.9452 64.547 66.9452 74.6879 69.4326 74.6879 72.0123 
64.547 60.0051 77.463 69.4326 66.9452 72.0123 64.547 62.2346 62.2346 
60.0051 72.0123 66.9452 64.547 69.4326 64.547 64.547 57.8555 60.0051 
57.8555 66.9452 62.2346 64.547 62.2346 66.9452 62.2346 64.547 64.547 
60.0051 64.547 60.0051 62.2346 55.7829 64.547 62.2346 74.6879 69.4326 
69.4326 66.9452 69.4326 69.4326 57.8555 55.7829 62.2346 57.8555 60.0051 
62.2346 57.8555 64.547 60.0051 60.0051 55.7829 64.547 72.0123 66.9452 
66.9452 64.547 60.0051 55.7829 66.9452 64.547 55.7829 53.7845 62.2346 
62.2346 60.0051 57.8555 55.7829 55.7829 50 55.7829 53.7845 51.8578 
60.0051 57.8555 53.7845 66.9452 62.2346 62.2346 60.0051 60.0051 57.8555 
64.547 55.7829 51.8578 50 55.7829 66.9452 62.2346 51.8578 50 
57.8555 51.8578 64.547 64.547 62.2346 64.547 60.0051 64.547 62.2346 
53.7845 51.8578 55.7829 53.7845 57.8555 62.2346 60.0051 53.7845 48.2088 
53.7845 48.2088 60.0051 53.7845 69.4326 50 48.2088 51.8578 50 
48.2088 44.8166 60.0051 51.8578 50 55.7829 51.8578 53.7845 50 
50 48.2088 51.8578 48.2088 50 48.2088 53.7845 50 60.0051 
57.8555 55.7829 51.8578 55.7829 51.8578 53.7845 51.8578 44.8166 41.6631 
50 48.2088 55.7829 53.7845 48.2088 46.4818 53.7845 51.8578 48.2088 
46.4818 53.7845 50 51.8578 48.2088 51.8578 48.2088 50 44.8166 
48.2088 44.8166 51.8578 46.4818 48.2088 46.4818 50 48.2088 51.8578 
48.2088 46.4818 46.4818 44.8166 86.4222 80.3411 83.3262 80.3411 74.6879 
83.3262 72.0123 66.9452 77.463 72.0123 66.9452 80.3411 74.6879 80.3411 
74.6879 66.9452 80.3411 77.463 72.0123 74.6879 72.0123 66.9452 72.0123 
66.9452 66.9452 77.463 72.0123 72.0123 66.9452 69.4326 66.9452 74.6879 
69.4326 74.6879 72.0123 77.463 74.6879 72.0123 69.4326 74.6879 69.4326 
64.547 69.4326 69.4326 64.547 66.9452 69.4326 66.9452 64.547 72.0123 
66.9452 69.4326 64.547 62.2346 66.9452 64.547 62.2346 69.4326 66.9452 
72.0123 66.9452 66.9452 69.4326 66.9452 66.9452 69.4326 64.547 62.2346 
64.547 62.2346 60.0051 57.8555 66.9452 62.2346 72.0123 66.9452 60.0051 
57.8555 66.9452 64.547 64.547 62.2346 64.547 62.2346 64.547 53.7845 
50 66.9452 64.547 69.4326 66.9452 77.463 69.4326 69.4326 66.9452 
60.0051 55.7829 57.8555 55.7829 62.2346 60.0051 55.7829 64.547 62.2346 
62.2346 60.0051 64.547 62.2346 64.547 64.547 57.8555 55.7829 66.9452 
62.2346 57.8555 53.7845 55.7829 53.7845 53.7845 50 60.0051 57.8555 
60.0051 57.8555 55.7829 53.7845 55.7829 53.7845 55.7829 53.7845 72.0123 
69.4326 55.7829 53.7845 55.7829 53.7845 53.7845 48.2088 51.8578 50 
50 48.2088 64.547 60.0051 51.8578 50 53.7845 60.0051 62.2346 
60.0051 50 48.2088 53.7845 51.8578 62.2346 57.8555 64.547 62.2346 
60.0051 57.8555 53.7845 50 62.2346 57.8555 50 48.2088 57.8555 
55.7829 55.7829 53.7845 50 46.4818 55.7829 53.7845 64.547 51.8578 
50 66.9452 64.547 62.2346 62.2346 60.0051 51.8578 57.8555 60.0051 
53.7845 50 51.8578 48.2088 46.4818 55.7829 53.7845 51.8578 50 
46.4818 53.7845 50 48.2088 62.2346 57.8555 51.8578 50 43.2111 
41.6631 62.2346 57.8555 46.4818 48.2088 44.8166 60.0051 57.8555 46.4818 
44.8166 46.4818 44.8166 51.8578 50 50 48.2088 48.2088 46.4818 
46.4818 44.8166 51.8578 50 57.8555 55.7829 50 48.2088 50 
48.2088 48.2088 46.4818 44.8166 41.6631 43.2111 40.1706 89.6332 86.4222 
77.463 72.0123 74.6879 66.9452 86.4222 74.6879 69.4326 74.6879 69.4326 
72.0123 69.4326 69.4326 66.9452 77.463 74.6879 74.6879 83.3262 80.3411 
62.2346 74.6879 72.0123 64.547 62.2346 77.463 74.6879 77.463 74.6879 
74.6879 69.4326 72.0123 69.4326 69.4326 64.547 80.3411 72.0123 69.4326 
69.4326 66.9452 74.6879 72.0123 69.4326 66.9452 69.4326 66.9452 62.2346 
69.4326 66.9452 64.547 69.4326 66.9452 64.547 72.0123 62.2346 55.7829 
53.7845 62.2346 77.463 74.6879 66.9452 64.547 74.6879 72.0123 77.463 
77.463 72.0123 69.4326 64.547 66.9452 64.547 69.4326 66.9452 66.9452 
64.547 69.4326 64.547 62.2346 60.0051 64.547 62.2346 64.547 72.0123 
60.0051 57.8555 60.0051 51.8578 50 64.547 62.2346 60.0051 57.8555 
72.0123 69.4326 57.8555 55.7829 60.0051 62.2346 64.547 62.2346 64.547 
62.2346 60.0051 55.7829 60.0051 57.8555 66.9452 64.547 60.0051 55.7829 
53.7845 66.9452 62.2346 60.0051 57.8555 55.7829 64.547 62.2346 57.8555 
55.7829 57.8555 55.7829 60.0051 57.8555 64.547 60.0051 69.4326 64.547 
62.2346 60.0051 69.4326 64.547 51.8578 50 57.8555 55.7829 66.9452 
64.547 66.9452 60.0051 51.8578 50 51.8578 50 62.2346 57.8555 
60.0051 57.8555 55.7829 53.7845 51.8578 50 55.7829 53.7845 66.9452 
64.547 53.7845 51.8578 66.9452 62.2346 60.0051 57.8555 51.8578 48.2088 
62.2346 57.8555 60.0051 57.8555 57.8555 55.7829 50 48.2088 50 
48.2088 50 48.2088 48.2088 46.4818 48.2088 46.4818 46.4818 44.8166 
64.547 62.2346 51.8578 50 57.8555 55.7829 53.7845 51.8578 62.2346 
57.8555 55.7829 53.7845 66.9452 62.2346 50 48.2088 51.8578 50 
53.7845 51.8578 55.7829 53.7845 48.2088 44.8166 60.0051 57.8555 50 
46.4818 48.2088 46.4818 50 48.2088 51.8578 50 55.7829 53.7845 
46.4818 44.8166 53.7845 51.8578 46.4818 44.8166 55.7829 53.7845 46.4818 
44.8166 50 48.2088 48.2088 46.4818 41.6631 40.1706 96.4176 89.6332 
92.9635 89.6332 86.4222 80.3411 83.3262 80.3411 86.4222 80.3411 83.3262 
80.3411 86.4222 83.3262 80.3411 77.463 80.3411 74.6879 77.463 74.6879 
77.463 72.0123 74.6879 72.0123 77.463 72.0123 86.4222 83.3262 74.6879 
72.0123 74.6879 72.0123 83.3262 77.463 80.3411 74.6879 72.0123 64.547 
77.463 74.6879 69.4326 66.9452 66.9452 62.2346 74.6879 72.0123 74.6879 
69.4326 64.547 62.2346 72.0123 69.4326 66.9452 64.547 72.0123 69.4326 
72.0123 66.9452 74.6879 69.4326 66.9452 64.547 64.547 62.2346 72.0123 
66.9452 69.4326 66.9452 69.4326 66.9452 66.9452 64.547 69.4326 64.547 
66.9452 64.547 62.2346 60.0051 77.463 74.6879 69.4326 66.9452 62.2346 
60.0051 72.0123 69.4326 74.6879 72.0123 64.547 62.2346 72.0123 69.4326 
72.0123 69.4326 66.9452 64.547 74.6879 72.0123 66.9452 64.547 74.6879 
72.0123 69.4326 66.9452 69.4326 66.9452 66.9452 62.2346 64.547 60.0051 
62.2346 60.0051 57.8555 55.7829 62.2346 60.0051 55.7829 53.7845 72.0123 
66.9452 69.4326 66.9452 72.0123 69.4326 69.4326 66.9452 51.8578 50 
57.8555 55.7829 51.8578 50 62.2346 60.0051 60.0051 57.8555 62.2346 
60.0051 69.4326 66.9452 62.2346 60.0051 60.0051 57.8555 60.0051 57.8555 
53.7845 51.8578 55.7829 53.7845 60.0051 57.8555 72.0123 69.4326 57.8555 
55.7829 57.8555 55.7829 50 48.2088 64.547 62.2346 57.8555 55.7829 
60.0051 57.8555 57.8555 55.7829 53.7845 51.8578 51.8578 50 64.547 
62.2346 55.7829 53.7845 60.0051 57.8555 60.0051 57.8555 60.0051 57.8555 
60.0051 57.8555 62.2346 60.0051 55.7829 53.7845 64.547 62.2346 50 
48.2088 55.7829 53.7845 57.8555 55.7829 64.547 60.0051 62.2346 60.0051 
62.2346 60.0051 50 48.2088 64.547 62.2346 62.2346 60.0051 64.547 
62.2346 48.2088 46.4818 60.0051 57.8555 53.7845 51.8578 60.0051 57.8555 
53.7845 51.8578 55.7829 53.7845 46.4818 44.8166 50 48.2088 51.8578 
50 50 48.2088 55.7829 53.7845 51.8578 50 48.2088 46.4818 
57.8555 55.7829 50 48.2088 50 48.2088 50 48.2088 46.4818 
44.8166 55.7829 53.7845 51.8578 50 44.8166 43.2111 92.9635 89.6332 
83.3262 80.3411 72.0123 69.4326 69.4326 64.547 66.9452 64.547 69.4326 
66.9452 72.0123 69.4326 
