# vtk DataFile Version 4.1
vtk output
ASCII
DATASET POLYDATA
POINTS 1300 float
16125 47875 54078.1 15403.1 46113.6 52634.4 15186.6 45585.2 52201.2 
12151.7 42217.6 43953.5 22684.4 40424.6 43156.8 27157.2 37052.4 41127.2 
21385 40735.8 33605 24818.2 38876.2 42002.6 6300.49 35849.1 35151.3 
9661.33 39543.3 39864.7 28248.3 36291.2 40128 4835.7 32356.3 33240.7 
26660.7 38661 36887.1 29683.3 33315.2 42328.8 30698.7 33520.4 37529.2 
8392.89 39141 32907.2 4364.11 28094.6 30873.2 27948.2 38551.9 33941.9 
22750.8 41390.7 28183.1 28334.5 38519.1 33058.4 4816.31 26167.7 26739.1 
5751.66 24671.9 22367.2 31114.3 30269.5 34592.5 28218.6 38528.9 33323.4 
27369.3 39542.6 31262.7 24924.8 39863.6 22847.8 22700.2 40398.4 19015.6 
28886.8 36562.9 29065.9 29015.6 34984.4 25675.4 5649.36 24782.5 23861.3 
7359.38 21722.5 22109.4 6905.21 22861.8 22397.7 5720.92 24705.1 22815.4 
5752.69 26218.8 20562.5 25274.1 39335.6 21970 4362.15 31172.3 24779.1 
29446.8 24729.3 44836.7 30487.3 25434.3 39500.9 28946.1 35836.8 27506.3 
29457.1 22138 38696.3 29015.6 21231.6 35257.8 23249.2 39929.2 19617.2 
8029.69 18226.6 25718.8 27468.8 18148.2 45828.1 30677.2 28143.9 32403 
29063.1 23640.6 30617.2 8199.02 22478.2 20060.3 9886.97 22867.2 16695.3 
5743.2 25764.6 21238.4 7341.84 25187.5 17984.4 5116.82 30804.8 20416.5 
5812.5 32921.9 16632.4 29087.1 20954.1 38407.5 28887.2 21200.3 36280.8 
26994.4 18742.2 33968.8 27459.5 18863 45579.7 7396.6 22013.5 22315.6 
9539.44 19000 22367.2 29273.4 26689 28039.1 9474.36 23030.7 17206.8 
10195.3 24785.3 13859.4 29526.7 26680.8 29137.9 6473.84 17454 31736 
7875 27457.3 14632.8 11901.7 40084 20912.8 6804.15 28798.8 16505.9 
25968.6 33693 19512.2 27239.5 18718.3 38136.8 24632.8 15850.6 38093.8 
9679.69 13777.8 30875 27510 19638.6 34272.7 7486.73 28178.5 15149.5 
8390.62 28488.5 12570.3 7230.47 15607.5 32802.5 28861.5 24060 30593.7 
27468.8 21529.7 29328.1 7958.63 14269.7 33609.5 10083.9 11781.2 35257.8 
26646.2 17087.8 45268.6 25406.2 14024.2 46601.6 27723.9 24309.4 26961.6 
8281.52 33761.4 12851.3 10586.2 37046.9 12570.3 26953.1 26694.2 22625 
22181.5 11265.6 44281.2 5563.04 32406.5 17581.7 6783.83 13937.1 37728.3 
23415.8 29253.3 15332.2 21824.7 26218.8 13601.6 23911.2 18082.7 28335.1 
22312.5 17598.5 25976.6 21796.9 16039.3 28296.9 26759.1 26066.8 23024.4 
25664.1 27405.7 20046.9 20622.3 29570.3 9734.38 8438.27 12114.2 38901.7 
9164.06 9709.47 41960.9 29314.6 26871 28253.4 21059.9 30025.9 10534.7 
19992.2 26992.2 10201.5 22836 17955 26477.2 22054.7 18934 23656.2 
22305.5 26940 14460 21281.2 23784 15406.2 22469.5 17705.5 26126.8 
20105.6 15906.2 26234.4 22132.4 16319.9 28606.1 19218.8 13585.9 30476.9 
22351.6 18562 24728.2 19218.8 17255.1 23140.6 29195.2 32538.6 26488.4 
29060 30601.6 25203.1 22143.8 18822.4 23977.8 23343.8 21193.5 22109.4 
20134.8 17848.5 23331.2 17929.7 18226.6 20532.6 19340.5 13868.2 30500.3 
17156.2 12250.5 32164.1 19255.3 13670.6 30484 16640.6 13309.6 28812.5 
23248.5 21106.4 22274.2 24375 23592.2 20562.5 17811.5 12735.8 31665 
17929.7 11779.2 34742.2 23315.2 21167.3 22158.8 22054.7 21526.6 19789.1 
20180.6 16137.6 26344.3 17671.9 14676 26750 22432.8 21418.8 20500 
20507.8 20181.8 19531.2 21248.1 24163.6 15536.6 19992.2 21532.8 16953.1 
19844.6 21882 16788.6 18029.7 19773.4 17984.4 29260.8 35143.6 39430.4 
31645.3 33953.1 35000 21918.1 41677.5 27562.1 31508.7 33469.4 35730.5 
4393.5 27660.1 28165 31608.2 30343.8 32421.9 9510.77 39797.5 29761.9 
4255.31 27250 24687.5 31152.4 26992.2 34742.2 27156.1 39969.4 27987.7 
26437.5 40457.2 25976.6 30119.1 34210.9 28812.5 4327.81 27367 24939.7 
5592.33 23411.9 25674.8 6070.31 22351.6 24642.1 22765.9 40242.8 19045.7 
28994.8 35240.1 26224.7 28055.5 36015.6 24429.7 6047.42 22465.8 24973.8 
7101.56 20517 24429.7 22719.9 40351.7 19024.6 29063.2 33746.6 26592.5 
7050.62 19823.4 26187.4 7101.56 18484.4 27423.4 29340.4 25193.8 30673.6 
29015.6 24609 29328.1 28975.4 21305.3 35399.3 12441.3 39844 18313 
13495.3 39882.8 16179.7 28166.2 35986.7 24770 27034.6 37304.7 23398.4 
9937.5 20374.7 20046.9 8390.62 39483.7 24687.5 9520.36 21061.1 19804.6 
10968.8 20488.1 18757.8 7427.03 25325.9 18170.1 8648.44 25118.4 16179.7 
18445.3 42260.9 19531.2 29015.6 22343.3 32164.1 7470.75 32222.7 13913.1 
7101.56 33836.6 14375 29016.1 22011.5 33189.6 7845.2 27557.9 14854.9 
8854.69 25960.9 14632.8 26437.5 22093.8 26184.9 7875 13162.1 36031.2 
11952.6 38851.6 16179.7 6585.94 36922.1 20046.9 25228.3 16423.8 38430.1 
9500.04 12644.1 34500.4 11226.6 11723.5 33968.8 12203.9 39123.5 16533.4 
12965.2 38851.6 14632.8 7659.98 13060.1 38081.9 8906.25 12229.8 37320.3 
26671 22388.9 26490.2 25932.2 20804.7 27007.8 10161.8 36167.7 12465.7 
12000 37103.6 11281.2 26885.2 26660.7 22655.4 26953.1 28023.4 21843.3 
22210.1 11410.4 44297.8 20507.8 9701.22 44539.1 21844.7 26428 13685.4 
25710.7 27053.5 20358.4 24890.6 26942.7 18757.8 25136.7 26975.9 19238 
24909.2 28281.2 17984.4 24964.4 26952.7 18901.9 23920.2 25445.3 18500 
22081.4 18900.5 23752.7 21653.5 19515.6 22109.4 20847.1 16716.9 26072.3 
19218.8 16355.9 24945.3 28874.3 31004.9 25310.7 28242.2 29828.1 24118.2 
28583.5 30463.6 24762.2 28041.1 31117.2 23140.6 17634.2 13446.7 29447.7 
15609.4 12273.2 30617.2 19178.7 18519.8 21334.6 18960.9 19257.8 19976.7 
17241.2 12346.4 32169.8 16125 11722.5 33453.1 22168.1 21494.2 20002.3 
22570.3 22712.5 19015.6 17757 11992.9 34436.8 17414.1 11722.5 36289.1 
20472.7 23066.9 15920.4 19218.8 22033.9 15148.4 6053.4 25949.2 45638 
29327.2 37140.2 33058.7 4520.34 27212.4 27737.2 4212 25703.1 28039.1 
28959.7 37946 30539.5 4905.62 25098.7 26298.8 4781.25 23598.3 27265.6 
31478.6 30573.3 32471.1 5742.48 24681.8 22501.7 6522 23640.6 21335.9 
6009.47 22264.4 25942 5554.69 21578.1 27422.4 19176.7 41977.6 19618.9 
18187.5 42255.7 20820.3 30623.3 29570.3 29843.8 31161.2 27464.2 34464.8 
6355.14 24041.1 21527.4 7278.94 23898.4 19789.1 28242.2 19979.7 43507.8 
28080.3 20289.3 45356 28053.5 19773.4 44796.9 7285.64 23831.5 19860 
7932.75 23640.6 18757.8 27468.8 38489.6 25460.9 28932.8 35051 25745.1 
6306.16 25858.7 19807.4 6310.59 26476.6 18757.8 28529.9 32148.4 23914.1 
7657.61 18833.4 25896.8 8390.62 18742.2 24337.9 30780.9 29774.9 30253.3 
30562.5 30799.6 28812.5 28398.8 23241.8 30038.7 28242.2 23096.1 29070.3 
8057.43 18343.1 25759.2 9370.31 17195.3 25460.9 8697.21 20540.3 21806.7 
9421.88 20012.7 21078.1 25250 32750.1 18026.5 9893.98 22904.6 16730 
10968.8 22725.9 15664.1 13546.9 40709.9 20046.9 13385.1 40585.5 20022.6 
28611.7 23618.2 30294 28527.8 22351.6 30875 10279 24188.1 14518.3 
11112.1 24156.2 13343.8 25264.7 14724.9 44755.3 24914.3 13843.8 45312.5 
9130.44 14564.9 30584.6 10195.3 13833.4 29585.9 9852.11 14163 29755 
10405.7 14359.4 28296.9 27709.4 22135.7 29396.4 26862.4 21578.1 28039.1 
26599.3 24922.4 23879.3 25982.7 24929.7 22625 22570.3 29312.5 13805.8 
6888.4 37208.8 19925.7 6271.41 36015.6 19015.6 10771.1 36450.7 11871.8 
10968.8 36383.8 10507.8 6843.75 35757.8 16644.8 10195.3 11239.8 38093.8 
26932.8 26684.1 22634.1 27468.8 27765.6 23089.1 21688.9 26353.3 13450 
21539.1 27406.8 12312.5 6843.75 11461.6 41445.3 19393 16461 24913.2 
18445.3 16421.9 23864.6 19432.2 17529.5 23078.2 17929.7 17392.3 22109.4 
23019.5 20373 22985 24375 21578.1 23092.2 19928.9 18184.6 22548.9 
20507.8 18954.6 21593.8 18349.2 14974.8 26820.9 17671.9 13992.2 28039.1 
21830.6 19558.2 22346.5 21796.9 20370.5 21078.1 19320.9 21089.7 17351 
19604.4 20289.1 18500 24632.8 40193.2 45312.5 22570.3 40714 32421.9 
31388.4 31647.8 39500.5 5749.6 20804.7 47632.8 17414.1 41745.2 25718.8 
29582.8 37820.3 31906.2 23085.9 41761.8 23914.1 23003.9 41763.3 23914.9 
23859.4 41429.7 22796.2 30057.2 36789.1 30101.6 4930.78 25960.9 23656.2 
28367 39109.4 29328.1 26602.1 40353.7 26913.6 25406.2 41216.2 26492.2 
4726.59 33695.3 30617.2 5386.28 23917.9 25862 5750.62 23382.8 24171.9 
29233.1 23038.8 44249.6 29387.9 22609.4 43250 30885.3 26734.4 32679.7 
30733.7 29713.5 30130.4 30598.6 28539.1 30101.6 30151.7 34337.5 28907.3 
30562.5 33437.5 29000.2 30866.6 26640.2 33024.8 30562.5 25930 32164.1 
6063.4 22385.8 24741.6 6522 22093.8 23398.4 30406.4 33779.5 28964.9 
30103.6 32664.1 27781.2 29906.6 22609.4 37578.1 18664.7 42175.9 19557.5 
17929.7 42232 18242.2 25460.9 36789.1 19789.1 28588.1 38785 29595.5 
28521.7 38593.8 28296.9 30576.8 26002.4 32429.2 29904.6 24671.9 31906.2 
28088.7 36006.9 24531.8 27984.4 35500 23604.7 14121.2 40717.6 19295.2 
14701.9 40914.1 17984.4 25282.8 36979.5 19673.2 25488.8 35242.2 19273.4 
5950.58 19093.4 30950.8 6270.37 18226.6 30359.4 28242.2 19978.7 37062.5 
14599.5 41260.3 22281.1 13289.1 40715 21593.8 27292.6 36896.4 23588.3 
26695.3 36930.3 22109.4 6725.67 25831.6 18889.9 6843.75 26218.8 17933.8 
29003.6 21253.7 35300.3 28360.8 20546.9 34226.6 8297.4 24791.1 17024.4 
8888.72 24156.2 16437.5 8242.33 18661.6 24896.4 9164.06 17938.8 24429.7 
28250.8 23175.6 29187.4 28001.9 23382.8 28039.1 8974.21 21626.7 19834.9 
9679.69 21527.6 18757.8 6957.91 16751.9 31340.6 7101.56 16907.6 30101.6 
25591.9 31890.6 18500 8515.1 24994 16500.7 7875 26168.2 15921.9 
20199.8 41610.8 19371.9 19476.6 42247.5 18500 26293.1 17453.1 35515.6 
24434.8 31890.6 16695.3 27392.2 23775.1 26687.2 26635.5 23125 25718.8 
7302.97 33366.7 14105.1 7617.19 34515.2 13601.6 27551.2 21320.3 30617.2 
7866.03 27487.5 14699.4 8390.62 27457.3 13601.6 10777.5 24239.6 13682.7 
10804.8 24671.9 12828.1 15093.8 41228.6 19531.2 7592.74 13753.2 35420.1 
7359.38 13779.8 36031.2 7745.17 13434 35750.1 8518.5 12812.5 35515.6 
8397.33 27398 13752 9164.06 27202.6 12570.3 9679.69 35888.8 11281.2 
23601.6 14350.1 39382.8 22407.3 31853.3 13213.5 22687.9 30859.4 13343.8 
10310 12263.8 34059.4 10968.8 12228.8 32679.7 27466 18362.6 45753.6 
26467.4 16164.1 47632.8 6670.4 13354.7 39023.2 7331.53 12554.7 39382.8 
21916.3 16185.4 28415.7 21824.7 16679.7 27007.8 21548.3 10848 44252.4 
20765.6 10689.2 43507.8 26862.6 27691.6 21909 26437.5 28281.2 20746.1 
7193.04 12662.5 39410.4 7617.19 11781.2 40273.8 8337.21 10917.4 40876.8 
8024.53 10750 41445.3 21853 17329.8 26106.1 21023.4 17385.1 24945.3 
[...]
CELL_DATA 1299
SCALARS radius float
LOOKUP_TABLE default
96.4176 92.9635 89.6332 92.9635 86.4222 89.6332 89.6332 83.3262 86.4222 
83.3262 80.3411 86.4222 83.3262 77.463 80.3411 77.463 83.3262 86.4222 
77.463 69.4326 60.0051 74.6879 80.3411 74.6879 83.3262 69.4326 72.0123 
60.0051 66.9452 60.0051 64.547 64.547 60.0051 80.3411 69.4326 72.0123 
80.3411 69.4326 77.463 66.9452 80.3411 50 62.2346 72.0123 62.2346 
62.2346 55.7829 62.2346 53.7845 66.9452 57.8555 74.6879 74.6879 66.9452 
66.9452 62.2346 55.7829 64.547 60.0051 53.7845 69.4326 69.4326 53.7845 
66.9452 62.2346 74.6879 72.0123 62.2346 57.8555 72.0123 60.0051 53.7845 
64.547 64.547 55.7829 62.2346 55.7829 62.2346 60.0051 66.9452 55.7829 
51.8578 53.7845 51.8578 64.547 60.0051 66.9452 55.7829 66.9452 60.0051 
60.0051 60.0051 55.7829 60.0051 55.7829 51.8578 66.9452 62.2346 57.8555 
64.547 55.7829 62.2346 55.7829 62.2346 53.7845 64.547 55.7829 62.2346 
55.7829 64.547 57.8555 60.0051 50 60.0051 53.7845 60.0051 50 
57.8555 53.7845 53.7845 48.2088 55.7829 51.8578 51.8578 44.8166 55.7829 
51.8578 50 46.4818 57.8555 51.8578 53.7845 50 80.3411 64.547 
80.3411 72.0123 74.6879 64.547 74.6879 66.9452 66.9452 69.4326 62.2346 
62.2346 69.4326 62.2346 55.7829 77.463 66.9452 60.0051 60.0051 55.7829 
74.6879 66.9452 55.7829 53.7845 66.9452 64.547 72.0123 62.2346 60.0051 
64.547 57.8555 55.7829 69.4326 57.8555 55.7829 55.7829 50 57.8555 
66.9452 57.8555 53.7845 69.4326 57.8555 55.7829 57.8555 55.7829 57.8555 
55.7829 66.9452 60.0051 55.7829 60.0051 55.7829 57.8555 51.8578 62.2346 
60.0051 53.7845 50 57.8555 51.8578 53.7845 50 60.0051 57.8555 
51.8578 55.7829 50 53.7845 50 57.8555 51.8578 57.8555 51.8578 
62.2346 57.8555 60.0051 55.7829 55.7829 53.7845 55.7829 51.8578 51.8578 
46.4818 48.2088 46.4818 53.7845 51.8578 55.7829 53.7845 74.6879 80.3411 
72.0123 66.9452 74.6879 66.9452 64.547 66.9452 62.2346 57.8555 60.0051 
55.7829 64.547 62.2346 57.8555 72.0123 60.0051 55.7829 64.547 69.4326 
64.547 57.8555 53.7845 66.9452 64.547 60.0051 57.8555 62.2346 53.7845 
48.2088 62.2346 60.0051 60.0051 55.7829 51.8578 50 57.8555 55.7829 
69.4326 57.8555 55.7829 62.2346 64.547 62.2346 60.0051 55.7829 51.8578 
57.8555 55.7829 60.0051 55.7829 57.8555 55.7829 57.8555 55.7829 62.2346 
57.8555 60.0051 60.0051 57.8555 51.8578 50 60.0051 53.7845 55.7829 
51.8578 57.8555 53.7845 53.7845 55.7829 53.7845 57.8555 53.7845 55.7829 
51.8578 57.8555 53.7845 53.7845 51.8578 53.7845 51.8578 51.8578 50 
74.6879 74.6879 77.463 72.0123 72.0123 74.6879 69.4326 74.6879 69.4326 
77.463 64.547 69.4326 64.547 57.8555 72.0123 64.547 62.2346 69.4326 
66.9452 66.9452 60.0051 57.8555 66.9452 62.2346 69.4326 64.547 57.8555 
55.7829 64.547 62.2346 74.6879 62.2346 60.0051 72.0123 72.0123 66.9452 
66.9452 64.547 62.2346 57.8555 62.2346 57.8555 74.6879 72.0123 72.0123 
69.4326 72.0123 77.463 74.6879 62.2346 60.0051 57.8555 53.7845 69.4326 
66.9452 53.7845 51.8578 51.8578 50 57.8555 55.7829 60.0051 55.7829 
66.9452 62.2346 72.0123 51.8578 50 66.9452 64.547 69.4326 62.2346 
64.547 60.0051 55.7829 53.7845 66.9452 55.7829 51.8578 53.7845 51.8578 
57.8555 60.0051 57.8555 57.8555 55.7829 53.7845 51.8578 53.7845 62.2346 
64.547 62.2346 57.8555 55.7829 64.547 62.2346 57.8555 53.7845 62.2346 
60.0051 51.8578 50 55.7829 53.7845 55.7829 53.7845 53.7845 51.8578 
60.0051 57.8555 53.7845 62.2346 57.8555 60.0051 55.7829 62.2346 57.8555 
55.7829 53.7845 50 51.8578 50 50 46.4818 48.2088 46.4818 
50 48.2088 53.7845 51.8578 53.7845 50 72.0123 69.4326 66.9452 
69.4326 66.9452 77.463 72.0123 72.0123 74.6879 72.0123 62.2346 60.0051 
62.2346 64.547 62.2346 66.9452 72.0123 69.4326 66.9452 64.547 62.2346 
60.0051 60.0051 72.0123 62.2346 60.0051 57.8555 60.0051 57.8555 77.463 
74.6879 74.6879 69.4326 66.9452 62.2346 60.0051 55.7829 64.547 60.0051 
64.547 60.0051 74.6879 69.4326 64.547 60.0051 74.6879 69.4326 77.463 
69.4326 62.2346 60.0051 57.8555 51.8578 72.0123 66.9452 77.463 66.9452 
72.0123 62.2346 69.4326 64.547 72.0123 69.4326 72.0123 66.9452 72.0123 
64.547 69.4326 66.9452 62.2346 57.8555 66.9452 64.547 69.4326 66.9452 
69.4326 66.9452 57.8555 55.7829 60.0051 51.8578 57.8555 55.7829 69.4326 
62.2346 55.7829 50 66.9452 62.2346 64.547 60.0051 57.8555 55.7829 
66.9452 62.2346 64.547 60.0051 66.9452 60.0051 64.547 57.8555 57.8555 
53.7845 62.2346 57.8555 62.2346 55.7829 66.9452 64.547 60.0051 57.8555 
53.7845 51.8578 51.8578 48.2088 72.0123 66.9452 60.0051 51.8578 50 
48.2088 57.8555 55.7829 55.7829 53.7845 60.0051 57.8555 53.7845 51.8578 
55.7829 53.7845 57.8555 51.8578 55.7829 50 53.7845 48.2088 60.0051 
55.7829 46.4818 43.2111 100 89.6332 96.4176 89.6332 92.9635 80.3411 
86.4222 74.6879 83.3262 74.6879 80.3411 69.4326 80.3411 66.9452 77.463 
72.0123 74.6879 69.4326 72.0123 64.547 72.0123 66.9452 74.6879 66.9452 
72.0123 64.547 69.4326 64.547 69.4326 62.2346 66.9452 57.8555 83.3262 
77.463 69.4326 62.2346 66.9452 60.0051 62.2346 55.7829 77.463 69.4326 
64.547 57.8555 64.547 60.0051 60.0051 53.7845 60.0051 53.7845 72.0123 
64.547 64.547 62.2346 60.0051 55.7829 62.2346 55.7829 83.3262 77.463 
57.8555 53.7845 55.7829 48.2088 69.4326 62.2346 80.3411 64.547 60.0051 
51.8578 57.8555 50 86.4222 77.463 80.3411 72.0123 80.3411 74.6879 
80.3411 72.0123 57.8555 53.7845 77.463 69.4326 55.7829 51.8578 53.7845 
48.2088 77.463 72.0123 77.463 69.4326 74.6879 69.4326 74.6879 64.547 
74.6879 66.9452 53.7845 51.8578 77.463 72.0123 86.4222 74.6879 51.8578 
48.2088 74.6879 66.9452 51.8578 46.4818 80.3411 74.6879 72.0123 66.9452 
77.463 69.4326 66.9452 64.547 77.463 74.6879 48.2088 46.4818 50 
44.8166 77.463 69.4326 74.6879 69.4326 72.0123 66.9452 69.4326 66.9452 
69.4326 62.2346 72.0123 66.9452 69.4326 66.9452 50 46.4818 74.6879 
66.9452 80.3411 72.0123 83.3262 72.0123 83.3262 77.463 50 48.2088 
69.4326 66.9452 66.9452 60.0051 80.3411 77.463 72.0123 64.547 74.6879 
69.4326 69.4326 64.547 69.4326 66.9452 77.463 72.0123 77.463 72.0123 
72.0123 69.4326 77.463 74.6879 74.6879 69.4326 80.3411 74.6879 77.463 
72.0123 74.6879 72.0123 66.9452 62.2346 72.0123 69.4326 72.0123 64.547 
64.547 62.2346 60.0051 55.7829 72.0123 66.9452 74.6879 66.9452 74.6879 
72.0123 77.463 74.6879 69.4326 64.547 69.4326 64.547 77.463 72.0123 
64.547 60.0051 72.0123 66.9452 72.0123 69.4326 66.9452 62.2346 57.8555 
51.8578 69.4326 66.9452 77.463 72.0123 62.2346 60.0051 57.8555 55.7829 
62.2346 57.8555 74.6879 69.4326 69.4326 66.9452 72.0123 69.4326 66.9452 
64.547 62.2346 60.0051 66.9452 64.547 69.4326 66.9452 55.7829 51.8578 
53.7845 51.8578 72.0123 69.4326 62.2346 60.0051 57.8555 55.7829 53.7845 
51.8578 69.4326 66.9452 64.547 62.2346 60.0051 57.8555 64.547 62.2346 
69.4326 64.547 60.0051 57.8555 62.2346 60.0051 72.0123 69.4326 66.9452 
64.547 62.2346 60.0051 62.2346 60.0051 69.4326 66.9452 64.547 62.2346 
53.7845 51.8578 64.547 60.0051 55.7829 53.7845 55.7829 53.7845 64.547 
62.2346 62.2346 60.0051 57.8555 55.7829 64.547 62.2346 60.0051 57.8555 
57.8555 53.7845 57.8555 53.7845 55.7829 53.7845 57.8555 55.7829 53.7845 
51.8578 60.0051 55.7829 57.8555 55.7829 55.7829 53.7845 53.7845 50 
64.547 60.0051 57.8555 55.7829 53.7845 51.8578 55.7829 53.7845 51.8578 
50 51.8578 50 48.2088 46.4818 51.8578 50 92.9635 86.4222 
83.3262 80.3411 89.6332 83.3262 86.4222 83.3262 86.4222 80.3411 74.6879 
69.4326 83.3262 77.463 80.3411 74.6879 77.463 74.6879 66.9452 64.547 
69.4326 66.9452 62.2346 57.8555 64.547 60.0051 80.3411 77.463 74.6879 
72.0123 60.0051 55.7829 74.6879 69.4326 72.0123 69.4326 57.8555 53.7845 
55.7829 53.7845 66.9452 62.2346 53.7845 50 57.8555 55.7829 51.8578 
48.2088 64.547 60.0051 72.0123 69.4326 66.9452 62.2346 83.3262 80.3411 
64.547 60.0051 74.6879 72.0123 64.547 62.2346 80.3411 74.6879 77.463 
74.6879 72.0123 69.4326 72.0123 69.4326 77.463 74.6879 69.4326 64.547 
80.3411 77.463 77.463 72.0123 48.2088 46.4818 72.0123 69.4326 74.6879 
72.0123 64.547 62.2346 72.0123 66.9452 69.4326 66.9452 46.4818 44.8166 
74.6879 69.4326 80.3411 74.6879 48.2088 46.4818 69.4326 66.9452 72.0123 
69.4326 51.8578 50 69.4326 64.547 72.0123 66.9452 72.0123 66.9452 
77.463 72.0123 66.9452 64.547 72.0123 69.4326 64.547 62.2346 69.4326 
64.547 74.6879 72.0123 69.4326 64.547 69.4326 66.9452 60.0051 57.8555 
74.6879 72.0123 77.463 74.6879 66.9452 64.547 64.547 62.2346 66.9452 
64.547 69.4326 66.9452 83.3262 80.3411 55.7829 53.7845 60.0051 57.8555 
57.8555 55.7829 74.6879 72.0123 72.0123 69.4326 57.8555 55.7829 53.7845 
51.8578 66.9452 64.547 69.4326 66.9452 64.547 60.0051 55.7829 53.7845 
74.6879 72.0123 62.2346 60.0051 69.4326 66.9452 72.0123 69.4326 50 
48.2088 60.0051 57.8555 74.6879 72.0123 57.8555 55.7829 55.7829 53.7845 
77.463 74.6879 60.0051 57.8555 55.7829 51.8578 69.4326 66.9452 53.7845 
51.8578 64.547 60.0051 60.0051 57.8555 62.2346 60.0051 69.4326 66.9452 
66.9452 62.2346 64.547 62.2346 64.547 62.2346 64.547 62.2346 66.9452 
64.547 74.6879 72.0123 64.547 62.2346 72.0123 69.4326 64.547 62.2346 
69.4326 66.9452 51.8578 50 53.7845 51.8578 62.2346 60.0051 62.2346 
60.0051 62.2346 60.0051 62.2346 60.0051 55.7829 53.7845 64.547 62.2346 
53.7845 51.8578 64.547 62.2346 62.2346 60.0051 60.0051 57.8555 55.7829 
53.7845 55.7829 53.7845 55.7829 51.8578 57.8555 55.7829 53.7845 51.8578 
51.8578 50 62.2346 60.0051 60.0051 57.8555 51.8578 50 55.7829 
53.7845 51.8578 50 53.7845 51.8578 48.2088 46.4818 50 48.2088 
44.8166 43.2111 89.6332 86.4222 89.6332 86.4222 77.463 74.6879 77.463 
74.6879 77.463 74.6879 72.0123 69.4326 69.4326 66.9452 72.0123 69.4326 
66.9452 64.547 66.9452 62.2346 57.8555 55.7829 62.2346 60.0051 64.547 
62.2346 57.8555 55.7829 77.463 74.6879 55.7829 53.7845 69.4326 64.547 
62.2346 60.0051 66.9452 64.547 66.9452 64.547 55.7829 53.7845 55.7829 
53.7845 50 48.2088 55.7829 53.7845 62.2346 60.0051 53.7845 51.8578 
80.3411 77.463 62.2346 57.8555 74.6879 72.0123 60.0051 57.8555 72.0123 
69.4326 66.9452 64.547 74.6879 72.0123 50 48.2088 69.4326 66.9452 
77.463 74.6879 66.9452 64.547 83.3262 80.3411 83.3262 80.3411 77.463 
74.6879 74.6879 72.0123 72.0123 69.4326 74.6879 69.4326 72.0123 66.9452 
74.6879 72.0123 72.0123 69.4326 69.4326 66.9452 74.6879 72.0123 72.0123 
66.9452 69.4326 66.9452 69.4326 66.9452 66.9452 64.547 69.4326 66.9452 
62.2346 60.0051 74.6879 72.0123 66.9452 64.547 66.9452 64.547 66.9452 
64.547 69.4326 66.9452 
