# vtk DataFile Version 4.1
vtk output
ASCII
DATASET POLYDATA
POINTS 1300 float
16125 47875 54078.1 16558.1 46177.7 51721.1 17569.2 45157.1 49529.2 
18402.7 43858.4 46609.6 18974 43602 46150 13642.9 42842.7 45113 
22322.6 41878.6 46270.1 18064.9 42267.7 42630.8 10208.5 39601.9 42994.6 
18966.4 41344.6 40598.4 23430.9 40408.9 43386.2 19667.6 40952.1 39064.4 
6547.16 36212 36680.6 27315.4 36870.1 43127.7 7362.67 33907.5 43639.5 
28681.4 35801.7 40874 7474.36 37166.8 38441.6 16977.7 41270.6 36513.5 
5248.41 24671.9 44023.4 21435.2 40852.2 34300 15839.4 41242.6 35634.5 
5260.57 33949.4 33695.5 4207.87 29570.3 31132.8 28557.5 35730.5 43754.7 
21868.8 40610.4 34068.1 15497.9 41234.3 35370.8 17191.9 41244.6 31596.5 
5732.99 26337.8 44381.7 29087.6 36334.3 37398.1 4460.53 29755 31170.4 
4769.19 31568.9 31601.2 30738.6 33687.8 38047.4 29951.8 35941.2 34713.8 
16280.8 41237.7 27321.2 12704.1 41067.7 30747.4 4370.4 27479.7 29191.7 
4736.91 25445.3 24687.5 29735.3 29850.8 44276.1 31259.1 30384.3 37787.7 
31652.5 28281.2 35257.8 30286.9 36354.2 33650.9 29531.2 36821 28554.7 
23769.9 41356.8 25685.5 4619.65 26212.4 27633.7 5444.34 22351.6 26750 
4922.22 25435.9 25086 6286.88 23898.4 21851.6 4263.56 28539.1 23398.4 
15630.8 41306.5 23539.8 29757.9 36681 30083.5 27213 40140.6 27523.4 
31339.8 29185.6 35732.1 30626.4 28281.2 30875 4373.8 29230.1 24148 
15254.9 41255.5 23079.9 29512 25847.7 44736.1 28883.6 21062.5 42734.4 
6358.75 24050.9 21978.1 7713.09 23125 19531.2 24078.2 39844.8 21830.6 
28820.3 22399.9 44341.3 28179.3 20031.2 44796.9 30599.6 33556.6 31450 
29589 31632.8 26492.2 30954.6 28697.2 33109.3 29436.5 36673 28720.8 
28028.7 36273.4 24171.9 20835.8 40914.1 17726.6 24191 38999.4 20565 
26456.1 35500 20562.5 5481.26 22888.7 26988.6 7298.53 18742.2 26750 
11254 40779.7 28129.7 7492.41 38593.8 27007.8 22695.1 38078.1 16437.5 
5927.79 24466.4 22910.5 6070.31 26686.9 19273.4 5761.97 30859.4 16953.1 
4536.53 30466.9 28546.6 28371.6 20741.8 44660.2 6934.5 16421.9 31648.4 
29923.3 25548.2 31834 6462.6 20649.6 26859.8 8216.35 19515.6 23656.2 
25777.1 36083.9 20382.7 25974.5 32921.9 19273.4 7694.94 23252.3 19831 
10195.3 22248.4 16953.1 29354.2 21936.2 37381.3 23432.5 38185.7 17874.8 
23601.6 34468.8 15873.4 8031.85 19894 24015.9 10280.9 20031.2 20046.9 
28788.6 20940.6 37517.7 7707.63 23163.2 19621.2 8024.53 25445.3 16437.5 
8209.85 38715.7 26861.5 5755.78 36531.2 25203.1 5633.37 30274.1 18089.6 
7310.91 28539.1 14890.6 5039.06 34515.2 22625 5830.75 30911.1 17334.9 
6795.28 33695.3 14890.6 6885.31 16830.1 31803 7994.62 14359.4 32937.5 
6730.52 29358.1 15829.8 7359.38 30051.9 13601.6 27930.5 19668.5 43634.4 
25921.9 15067.8 45312.5 9356.29 22866.9 17575.6 10453.1 24156.2 14204.8 
28606.8 23891.6 29383.4 26517.9 22867.2 25976.6 6953.79 33098.3 14928.8 
8022.47 34726.6 12828.1 6919.75 16544.4 31694.8 8964 15390.6 29070.3 
24947.3 16164.1 38093.8 25688.5 33703.7 19300.7 24425.5 30601.6 16695.3 
7331.12 28566.3 15002.8 8906.25 26685.9 13343.8 27255.8 19514.4 34093.8 
11997.1 40565.4 23272.5 7875 38851.6 22270.3 10559.7 39949.7 22622.5 
9679.69 39473.4 20562.5 24619.3 31475.2 17110 23373.7 30859.4 14632.8 
7355.46 29741.7 13948.4 8903.16 29570.3 10507.8 13375.6 40481.8 20410.4 
24543.1 16421.9 32937.5 7395.57 15693.6 32324.9 6585.94 14824.5 36546.9 
26003 15980.7 44414.6 23916.1 13070.3 44023.4 7955.02 14678.9 32986 
9894.19 11781.2 35515.6 27237.8 23514.5 26800.9 26437.5 24929.7 23347.9 
26505.6 20804.7 28554.7 8885 39107.2 22070.5 6843.75 37304.7 19761.2 
8002.05 34548.1 13359.2 9312.46 12650.5 34756.7 8390.62 12424.8 37578.1 
8796.63 13421.4 34083.9 11484.4 11770.9 32937.5 23747.3 31044.1 15375.9 
22570.3 27406.8 14375 12000 36904.6 10765.6 23376 30824 14674.3 
21815.4 29828.1 11796.9 24118.1 13495.2 44201.2 21333.8 10492.2 44539.1 
26796.6 24867.5 24383.1 27001.6 28023.4 22109.4 6842.82 33516.2 14902.1 
6826.22 36015.6 16953.1 9815.09 39345.4 20697 8906.25 38335.9 18099.9 
26907.3 26571.7 23155.3 25460.9 26476.6 20304.7 8350.82 12532.3 37249.5 
6328.12 12757.8 40671.9 23716.4 17916.3 28350.6 22312.5 17794.5 25718.8 
22923.4 28498 14675.3 23343.8 25911.4 16695.3 22534.4 27812.1 14299.5 
20825.4 25703.1 12570.3 7743.93 12600 38276.2 8852.62 10492.2 41445.3 
9187.78 38479.9 18424 9164.06 37417.1 15406.2 21474.8 26504.5 13227.4 
20250 27480 9992.19 27034.8 24136.9 25688.7 28510.3 27765.6 25203.1 
22409.9 17779.6 26140.6 20300.5 17453.1 23656.2 22341.7 17790 25845.3 
22570.3 19154.7 23656.2 22906.4 17831.5 26980.4 19992.2 15540.2 26750 
19476.6 13480.8 30875 20933.3 17551.1 24401.6 18187.5 15888.7 24687.5 
29424.7 31865.9 26819.8 28500 30859.4 23849.1 20312.4 17547 23771.1 
17718.3 17710.9 21335.9 22722 19052.4 24278 24225.5 21835.9 22625 
19680.4 14026 30368.3 16171.4 12554.7 30617.2 23687.5 21306.2 22576.5 
24022.3 23125 20562.5 17785.5 13231.5 30502.7 16898.4 11779.2 33195.3 
25888.7 33156.4 19281.6 26956.2 30601.6 20820.3 18505.6 13533.3 30451.6 
16640.6 13775.7 28039.1 23814.7 21997.3 21811.2 21848.4 21835.9 19015.6 
17282.3 12167.5 32829.3 17929.7 11751.3 35773.4 22615.8 19124 23842.8 
21023.4 19638.3 21078.1 21071.2 19676.3 21126.5 19734.4 20181.8 18757.8 
22030.1 21959.8 19140.7 20250 22093.8 16267.3 14887.4 45108.6 49782.2 
13413 42755.9 44711.1 12373.2 41991.7 42974.3 24091.8 39532.4 41666.6 
8349.07 36568.7 43321.3 24244.7 39329.5 41268.7 23409.4 39582.4 40261.9 
7045.15 32843.2 43592 20328.7 40875.9 36338.4 26071.3 38092.7 41392.3 
29829.3 34166.8 43029.9 31078.1 31890.6 42763.2 6152.19 33868.5 38628.6 
4705.97 31632.8 34742.2 24422.2 40045.2 33410 13684.7 41135.5 31797 
13359.5 40685 35837.6 5510.04 25571.5 44216.9 5258.82 32413.7 36666 
30821 32288.6 42578.6 31650.5 30343.8 40929.7 18888.5 41429.3 29249.6 
12619.1 40544.1 35074.2 4283.67 29625.7 31144.1 31418.6 30575.9 41338.8 
8053.51 38495.9 32284.6 31451.4 31117.2 31906.2 18132.8 41675.3 26440.2 
27467.9 38805.8 33158.7 4783.1 25793.1 26257.9 28506.2 38389.4 29402 
27468.8 39816.8 29843.8 27306.2 39809 27541.2 26437.5 40457.2 25976.6 
7660.71 38564.4 31658.8 8390.62 39483.7 29585.9 29948.9 36319.2 30832.7 
30101.5 34726.6 28554.7 9371.34 39882.8 24687.5 29865 35236.2 28778.3 
29431.2 34726.6 26750 5464.25 22641.6 26878.9 6264.19 22351.6 24171.9 
17171.3 41437.9 26797.5 28855.8 35771.6 26275.5 28757.8 34726.6 25173.2 
6277.49 22276.8 24388.4 6997.41 21835.9 22625 29579 27048.6 44598.1 
28764 21129.5 43032 28528.9 19773.4 41960.9 7012.77 21937.5 22828.4 
7875 21694.7 21335.9 29502.8 36776.6 28604.5 28516.5 37820.3 27007.8 
22398.9 40806.3 20021.2 29147.3 31563.9 25928.6 28574.2 32921.9 24429.7 
6316.88 25127.3 20727.4 6782.91 24929.7 19531.2 27997.1 36329.4 24411.9 
26970.7 37046.9 22625 14522.4 40398.4 15406.2 7194.89 19294.3 26607.9 
8648.44 17917.2 25460.9 26395 35552.6 20546.3 27025.3 33695.3 21335.9 
7267.49 18907.8 26707.4 23231.7 36699 16631.1 22570.3 36062 15148.4 
6262.43 26147.7 19529.7 6826.22 26734.4 17468.8 9533.66 39845.4 24474.9 
8008.03 39109.4 24945.3 28077.7 19839.3 37662.6 27029.4 18742.2 35515.6 
9717.12 20287.1 20608.5 10195.3 21062.5 18650.6 15138.3 40769.2 15623 
14636.9 40140.6 13085.9 28523.7 21578.1 32421.9 7150.96 28803.8 15250.8 
6930.06 16458.6 31662.3 8521.59 14359.4 31390.6 23366.7 35177.2 15928.8 
22848.8 33953.1 14375 28600.5 32703.9 24476.2 28013.2 33695.3 22882.8 
6697 32374.8 15392.6 7285.12 32148.4 13601.6 28510.6 21614.4 32561.2 
27726.6 21186.2 30875 5071.65 34337.2 23306.7 5812.5 36353.9 22367.2 
8405.06 15577.9 30097.2 10081.9 13843.8 29843.8 8016.39 34673 12987.5 
8906.25 34777.1 11023.4 8276.16 27726.2 13718.6 8906.25 27715.1 12312.5 
25595 16716.3 38500.6 24375 15008 39898.4 25879.5 15215.1 45286.6 
25463 14359.4 46859.4 9829.84 12082.9 35153.2 11221.4 11265.6 35257.8 
6835.19 14703.4 36309.9 6774.66 14101.6 38093.8 24627.4 15236.3 39923.9 
24230.6 14359.4 41187.5 26979.4 21576.9 28502.7 25981.7 21062.5 27007.8 
25916.6 15444.9 45025 26437.5 16084.7 47375 23536.7 34520.7 15857.1 
23859.4 32664.1 15586.7 8378.66 12457 37479.5 26018.5 21010.6 27341.8 
24973.1 20289.1 26492.2 26385.9 26883.2 21817.3 26284.9 27765.6 20820.3 
21858.3 30008.6 12090 20839.9 29570.3 10507.8 21626.4 10996.4 44299.7 
19992.2 9718.75 43973.9 28024.6 26894.1 25117.7 27886.4 28539.1 23656.2 
25630.8 26651.6 20496.5 24890.6 26942.7 18757.8 21858.9 26810.2 13776.9 
20963.6 24671.9 13859.4 23049.8 26356.9 16113.8 22054.7 24104.7 16437.5 
21488.9 15691.2 29164 19992.2 14820.3 28554.7 25156.3 27064.3 19258.1 
24938.1 28539.1 17984.4 28418.6 27677.2 25245.4 29069.2 29312.5 25718.8 
19311.7 16789.6 24148.6 18445.3 16569.3 23656.2 28562.8 30796.1 24363.5 
27984.4 29828.1 23309.8 21037.8 19649.7 21092.6 19781.8 18742.2 21335.9 
20357.9 19718.1 20299.7 18554.6 19000 19789.1 17013.6 11895.6 33085.5 
15351.6 11723.5 32679.7 23960 22786.7 20937.1 24951.5 24414.1 21078.1 
20114.1 15884.5 26805.3 17929.7 14805.9 26750 19974.9 20177.4 19065.8 
20250 21045 17984.4 19806.5 20180.5 18850.2 18187.5 19773.4 18109.2 
20106 42601.9 44706.5 8712.58 37428.9 43078.7 7308.43 32884.5 44671.9 
5006.48 34021.1 32290.5 4722.47 33179.7 31132.8 28965.7 36174.5 38440.9 
5060.41 25422.2 42748 4726.59 26476.6 41445.3 4930.37 29731.5 38589.6 
4722.37 33232.4 31142.3 31335.9 31940.1 40156.2 29015.6 37562.5 34574.1 
14835.9 41230.7 27265.6 14300.8 41224.3 27497 14578.1 41230.7 25718.8 
7077.74 36177.3 38497.7 10710.9 40685.1 30359.4 11432.5 40726.2 29493.3 
10401.6 40398.4 29070.3 4207.87 25445.3 30875 4436.81 29994.1 27236.1 
4207.87 28281.2 26750 31616.8 28384.3 35311.9 10405.7 40398.4 25718.8 
5702.67 22833.8 25523.2 5618.62 23640.6 24171.9 30887.2 28652.7 32369.8 
31132.8 29312.5 31390.6 17854.4 42203.1 21335.9 5450.32 22438.6 26788.7 
5962.03 21578.1 25976.6 4296.66 28746.4 23623.3 5039.06 26669.4 22882.8 
4624.29 27841.8 23116.1 4781.25 27477.9 21851.6 5874.68 21774.3 26051.5 
6325.03 21320.3 24945.3 23457 40360.9 20816.4 6843.75 37945.1 28296.9 
28538.8 37789.5 27230 27468.8 38903.1 25976.6 29728.2 32761.6 27469.8 
29589 32921.9 26492.2 28283.1 20415 44723 28039 20031.2 46085.9 
[...]
CELL_DATA 1299
SCALARS radius float
LOOKUP_TABLE default
96.4176 92.9635 89.6332 86.4222 89.6332 83.3262 86.4222 86.4222 83.3262 
80.3411 80.3411 80.3411 77.463 74.6879 74.6879 83.3262 80.3411 62.2346 
74.6879 77.463 77.463 66.9452 74.6879 72.0123 74.6879 77.463 66.9452 
69.4326 72.0123 74.6879 72.0123 66.9452 74.6879 69.4326 69.4326 57.8555 
72.0123 69.4326 62.2346 64.547 53.7845 72.0123 66.9452 55.7829 62.2346 
55.7829 60.0051 72.0123 60.0051 51.8578 66.9452 55.7829 66.9452 69.4326 
66.9452 57.8555 57.8555 51.8578 69.4326 62.2346 53.7845 62.2346 50 
64.547 57.8555 50 57.8555 66.9452 55.7829 62.2346 53.7845 62.2346 
55.7829 62.2346 60.0051 51.8578 55.7829 72.0123 60.0051 51.8578 60.0051 
60.0051 51.8578 62.2346 55.7829 55.7829 50 66.9452 64.547 53.7845 
57.8555 50 64.547 53.7845 48.2088 57.8555 50 60.0051 48.2088 
60.0051 57.8555 48.2088 57.8555 51.8578 53.7845 50 57.8555 48.2088 
53.7845 46.4818 57.8555 50 51.8578 46.4818 55.7829 50 53.7845 
60.0051 53.7845 50 46.4818 62.2346 64.547 55.7829 62.2346 57.8555 
55.7829 48.2088 51.8578 46.4818 64.547 53.7845 55.7829 48.2088 53.7845 
48.2088 53.7845 44.8166 53.7845 46.4818 51.8578 60.0051 51.8578 50 
50 44.8166 51.8578 48.2088 53.7845 46.4818 46.4818 51.8578 43.2111 
51.8578 46.4818 48.2088 43.2111 50 46.4818 60.0051 53.7845 46.4818 
38.7315 48.2088 41.6631 60.0051 51.8578 51.8578 44.8166 48.2088 43.2111 
46.4818 41.6631 57.8555 50 44.8166 38.7315 51.8578 44.8166 55.7829 
46.4818 53.7845 48.2088 57.8555 53.7845 50 51.8578 46.4818 53.7845 
48.2088 48.2088 43.2111 51.8578 46.4818 53.7845 46.4818 50 43.2111 
50 43.2111 57.8555 53.7845 51.8578 48.2088 48.2088 43.2111 48.2088 
43.2111 50 43.2111 46.4818 40.1706 44.8166 41.6631 86.4222 86.4222 
80.3411 77.463 77.463 74.6879 74.6879 72.0123 77.463 72.0123 72.0123 
64.547 77.463 64.547 66.9452 72.0123 72.0123 64.547 72.0123 69.4326 
62.2346 74.6879 69.4326 69.4326 66.9452 60.0051 57.8555 69.4326 64.547 
64.547 57.8555 53.7845 55.7829 51.8578 57.8555 53.7845 62.2346 57.8555 
55.7829 60.0051 51.8578 60.0051 51.8578 72.0123 55.7829 53.7845 55.7829 
50 69.4326 60.0051 57.8555 51.8578 48.2088 55.7829 48.2088 64.547 
51.8578 48.2088 57.8555 55.7829 51.8578 46.4818 57.8555 57.8555 53.7845 
60.0051 53.7845 55.7829 62.2346 55.7829 53.7845 50 60.0051 57.8555 
62.2346 55.7829 53.7845 50 62.2346 57.8555 55.7829 51.8578 53.7845 
51.8578 60.0051 53.7845 50 48.2088 53.7845 50 57.8555 53.7845 
62.2346 57.8555 53.7845 50 48.2088 44.8166 48.2088 46.4818 57.8555 
50 50 46.4818 48.2088 44.8166 50 48.2088 53.7845 51.8578 
55.7829 50 51.8578 48.2088 57.8555 51.8578 46.4818 53.7845 51.8578 
43.2111 41.6631 46.4818 43.2111 48.2088 46.4818 48.2088 46.4818 41.6631 
36.0062 46.4818 41.6631 48.2088 46.4818 55.7829 51.8578 40.1706 37.344 
46.4818 44.8166 48.2088 46.4818 50 46.4818 44.8166 40.1706 44.8166 
43.2111 46.4818 43.2111 46.4818 43.2111 55.7829 50 43.2111 40.1706 
41.6631 38.7315 80.3411 83.3262 66.9452 74.6879 66.9452 72.0123 62.2346 
60.0051 74.6879 69.4326 62.2346 60.0051 64.547 66.9452 62.2346 80.3411 
66.9452 64.547 62.2346 66.9452 69.4326 66.9452 64.547 57.8555 57.8555 
55.7829 62.2346 60.0051 64.547 57.8555 53.7845 64.547 57.8555 62.2346 
60.0051 55.7829 53.7845 66.9452 55.7829 51.8578 46.4818 57.8555 53.7845 
57.8555 55.7829 55.7829 51.8578 64.547 55.7829 51.8578 57.8555 62.2346 
57.8555 55.7829 53.7845 53.7845 50 50 48.2088 60.0051 57.8555 
55.7829 53.7845 57.8555 55.7829 57.8555 55.7829 53.7845 53.7845 48.2088 
60.0051 55.7829 51.8578 50 62.2346 60.0051 57.8555 51.8578 50 
48.2088 51.8578 62.2346 51.8578 50 55.7829 53.7845 50 48.2088 
60.0051 53.7845 51.8578 48.2088 55.7829 53.7845 51.8578 48.2088 57.8555 
55.7829 46.4818 44.8166 50 48.2088 51.8578 50 57.8555 51.8578 
53.7845 51.8578 46.4818 44.8166 55.7829 51.8578 48.2088 43.2111 46.4818 
44.8166 55.7829 53.7845 50 48.2088 55.7829 51.8578 53.7845 51.8578 
43.2111 40.1706 44.8166 43.2111 38.7315 37.344 37.344 34.7163 38.7315 
34.7163 50 46.4818 48.2088 44.8166 48.2088 46.4818 48.2088 46.4818 
55.7829 51.8578 50 48.2088 40.1706 38.7315 46.4818 44.8166 41.6631 
38.7315 43.2111 41.6631 77.463 72.0123 72.0123 74.6879 72.0123 74.6879 
69.4326 64.547 72.0123 69.4326 77.463 74.6879 69.4326 64.547 64.547 
60.0051 66.9452 66.9452 64.547 66.9452 69.4326 66.9452 66.9452 64.547 
66.9452 60.0051 64.547 72.0123 69.4326 64.547 62.2346 66.9452 72.0123 
64.547 62.2346 60.0051 57.8555 77.463 57.8555 69.4326 66.9452 64.547 
57.8555 64.547 62.2346 62.2346 57.8555 60.0051 66.9452 64.547 57.8555 
55.7829 64.547 62.2346 72.0123 60.0051 57.8555 60.0051 57.8555 62.2346 
60.0051 57.8555 64.547 62.2346 55.7829 53.7845 53.7845 51.8578 55.7829 
53.7845 64.547 60.0051 60.0051 53.7845 66.9452 62.2346 57.8555 55.7829 
53.7845 51.8578 66.9452 62.2346 64.547 62.2346 57.8555 53.7845 51.8578 
53.7845 50 53.7845 50 62.2346 57.8555 55.7829 53.7845 66.9452 
62.2346 51.8578 50 62.2346 60.0051 57.8555 53.7845 64.547 62.2346 
51.8578 51.8578 48.2088 66.9452 64.547 50 48.2088 50 48.2088 
55.7829 53.7845 60.0051 57.8555 51.8578 50 51.8578 50 60.0051 
57.8555 64.547 62.2346 60.0051 57.8555 66.9452 62.2346 60.0051 57.8555 
55.7829 53.7845 57.8555 55.7829 55.7829 51.8578 53.7845 51.8578 50 
48.2088 53.7845 50 48.2088 46.4818 50 48.2088 50 46.4818 
48.2088 46.4818 57.8555 55.7829 53.7845 51.8578 36.0062 34.7163 50 
48.2088 50 48.2088 44.8166 43.2111 53.7845 48.2088 50 48.2088 
50 48.2088 50 48.2088 48.2088 46.4818 43.2111 44.8166 40.1706 
43.2111 41.6631 44.8166 43.2111 43.2111 41.6631 41.6631 40.1706 41.6631 
38.7315 53.7845 51.8578 40.1706 38.7315 37.344 36.0062 51.8578 50 
43.2111 41.6631 44.8166 43.2111 44.8166 43.2111 44.8166 43.2111 53.7845 
50 48.2088 46.4818 40.1706 38.7315 92.9635 89.6332 83.3262 80.3411 
74.6879 72.0123 72.0123 83.3262 72.0123 77.463 74.6879 83.3262 80.3411 
77.463 74.6879 74.6879 72.0123 80.3411 77.463 74.6879 69.4326 74.6879 
72.0123 69.4326 72.0123 69.4326 69.4326 77.463 64.547 64.547 72.0123 
66.9452 64.547 69.4326 69.4326 66.9452 66.9452 64.547 69.4326 66.9452 
69.4326 66.9452 66.9452 74.6879 72.0123 69.4326 66.9452 69.4326 64.547 
64.547 62.2346 64.547 64.547 62.2346 62.2346 60.0051 66.9452 62.2346 
60.0051 66.9452 62.2346 60.0051 62.2346 60.0051 66.9452 64.547 66.9452 
62.2346 55.7829 66.9452 64.547 57.8555 55.7829 64.547 64.547 62.2346 
60.0051 57.8555 62.2346 60.0051 66.9452 66.9452 64.547 69.4326 64.547 
60.0051 62.2346 60.0051 62.2346 60.0051 60.0051 57.8555 55.7829 60.0051 
57.8555 50 48.2088 62.2346 60.0051 64.547 57.8555 64.547 62.2346 
55.7829 53.7845 51.8578 50 53.7845 51.8578 60.0051 55.7829 55.7829 
53.7845 51.8578 48.2088 62.2346 66.9452 60.0051 50 48.2088 62.2346 
57.8555 55.7829 53.7845 57.8555 55.7829 57.8555 50 48.2088 53.7845 
51.8578 55.7829 53.7845 60.0051 57.8555 60.0051 55.7829 53.7845 51.8578 
57.8555 55.7829 64.547 62.2346 57.8555 55.7829 53.7845 51.8578 57.8555 
55.7829 60.0051 57.8555 51.8578 48.2088 57.8555 55.7829 51.8578 50 
66.9452 62.2346 55.7829 53.7845 53.7845 51.8578 51.8578 50 64.547 
57.8555 60.0051 57.8555 53.7845 50 62.2346 60.0051 62.2346 60.0051 
60.0051 55.7829 55.7829 53.7845 48.2088 46.4818 50 48.2088 50 
48.2088 53.7845 51.8578 55.7829 53.7845 57.8555 55.7829 44.8166 43.2111 
57.8555 53.7845 51.8578 50 50 48.2088 55.7829 53.7845 46.4818 
44.8166 41.6631 40.1706 43.2111 41.6631 40.1706 38.7315 50 46.4818 
46.4818 44.8166 44.8166 43.2111 48.2088 46.4818 41.6631 40.1706 44.8166 
43.2111 51.8578 50 40.1706 37.344 100 92.9635 96.4176 89.6332 
92.9635 86.4222 89.6332 80.3411 83.3262 77.463 80.3411 72.0123 74.6879 
69.4326 72.0123 66.9452 77.463 74.6879 83.3262 77.463 80.3411 74.6879 
77.463 72.0123 80.3411 77.463 77.463 74.6879 74.6879 69.4326 72.0123 
66.9452 74.6879 72.0123 69.4326 64.547 80.3411 77.463 77.463 69.4326 
80.3411 77.463 72.0123 69.4326 74.6879 72.0123 74.6879 72.0123 66.9452 
62.2346 69.4326 66.9452 64.547 62.2346 69.4326 62.2346 72.0123 66.9452 
62.2346 60.0051 69.4326 66.9452 72.0123 69.4326 66.9452 64.547 69.4326 
64.547 62.2346 60.0051 74.6879 72.0123 66.9452 64.547 66.9452 64.547 
69.4326 64.547 72.0123 69.4326 69.4326 66.9452 69.4326 66.9452 66.9452 
62.2346 64.547 62.2346 66.9452 62.2346 69.4326 64.547 69.4326 66.9452 
66.9452 64.547 64.547 60.0051 60.0051 57.8555 62.2346 60.0051 66.9452 
62.2346 57.8555 55.7829 60.0051 57.8555 62.2346 60.0051 64.547 60.0051 
69.4326 64.547 60.0051 57.8555 60.0051 57.8555 62.2346 57.8555 66.9452 
62.2346 64.547 60.0051 69.4326 66.9452 72.0123 69.4326 69.4326 66.9452 
62.2346 60.0051 66.9452 62.2346 60.0051 57.8555 48.2088 44.8166 64.547 
60.0051 62.2346 60.0051 46.4818 44.8166 55.7829 53.7845 60.0051 57.8555 
66.9452 64.547 64.547 62.2346 62.2346 60.0051 64.547 62.2346 60.0051 
57.8555 64.547 62.2346 60.0051 57.8555 57.8555 55.7829 62.2346 60.0051 
48.2088 46.4818 64.547 62.2346 64.547 62.2346 60.0051 57.8555 64.547 
60.0051 53.7845 51.8578 51.8578 50 62.2346 60.0051 55.7829 53.7845 
57.8555 55.7829 55.7829 51.8578 50 48.2088 62.2346 60.0051 53.7845 
51.8578 55.7829 53.7845 64.547 62.2346 57.8555 53.7845 51.8578 50 
60.0051 55.7829 57.8555 55.7829 57.8555 55.7829 50 48.2088 50 
48.2088 62.2346 60.0051 55.7829 53.7845 64.547 62.2346 55.7829 53.7845 
48.2088 46.4818 51.8578 50 51.8578 50 51.8578 50 50 
48.2088 55.7829 51.8578 53.7845 51.8578 55.7829 53.7845 48.2088 46.4818 
57.8555 55.7829 46.4818 44.8166 51.8578 48.2088 50 48.2088 44.8166 
43.2111 44.8166 43.2111 44.8166 43.2111 44.8166 43.2111 53.7845 51.8578 
53.7845 51.8578 43.2111 41.6631 55.7829 53.7845 36.0062 34.7163 51.8578 
50 48.2088 46.4818 46.4818 44.8166 53.7845 51.8578 50 48.2088 
51.8578 50 46.4818 44.8166 44.8166 43.2111 38.7315 37.344 89.6332 
86.4222 80.3411 77.463 86.4222 80.3411 83.3262 80.3411 74.6879 72.0123 
83.3262 77.463 80.3411 77.463 69.4326 64.547 66.9452 64.547 77.463 
74.6879 77.463 74.6879 80.3411 74.6879 64.547 62.2346 77.463 74.6879 
83.3262 80.3411 74.6879 72.0123 66.9452 64.547 72.0123 69.4326 69.4326 
64.547 72.0123 69.4326 66.9452 62.2346 64.547 62.2346 64.547 62.2346 
66.9452 64.547 74.6879 72.0123 66.9452 64.547 69.4326 66.9452 64.547 
62.2346 69.4326 66.9452 
