# vtk DataFile Version 4.1
vtk output
ASCII
DATASET POLYDATA
POINTS 1300 float
16125 47875 54078.1 15403.1 46110.7 52273.4 15186.6 45581.5 51732 
18329.9 44134.8 47664.9 19334 43865.4 47101 18049.8 42602.1 43819.4 
12341 42324.3 44002.6 17747.9 42232.1 42428.4 9412.18 38751.1 43695.8 
21793.1 40337.7 41255.1 8419.29 36988.1 43892.5 27449.3 37346.7 44207.7 
7935.84 35381.5 44395.8 16130.1 41497.1 37933.8 7046.6 36478.5 37813.6 
7018.03 32295.2 44834.4 28240.4 36592.9 42570.2 28940.1 36064.6 40505.8 
21676.2 40275.9 38496.4 21767.5 40372.7 35597.3 14208.8 41328.1 34836.1 
5948.21 28583.1 43725.3 29066.8 36267 38805.5 15763.7 41264.8 31026.5 
10281.5 40103.1 36768.6 5515.5 27207.1 43211.5 5467.03 33671.7 34033.1 
4950.79 31505.4 32372.2 30318.6 32353.8 42288.4 30857.4 31849.1 42781 
22718 41169.1 29801.5 31016.1 33744.9 36896 15218.3 41249.1 29059.3 
4599.34 28829.8 31199.1 14997.8 41282.9 27129.4 15609.4 41547.2 22367.2 
31211.2 29683.5 41358.9 30878.8 34014.3 32897.3 31521.2 28231.9 37000.5 
31595.8 29570.3 32679.7 23301.7 41401.7 25939.4 4723.71 26359.9 27933.4 
4445.89 30684.6 27672.5 29060 22867.2 45828.1 29874.4 35859.4 29894.8 
23730.1 40741.5 22478.3 25423.8 37820.3 20304.7 5253.56 25893.9 24428.4 
4723.09 25448.4 27433.6 24918.5 38839.1 20895.4 29321.7 24107.8 45478 
15769.1 41571.7 23111.6 6801.47 20804.7 24687.5 15093.8 41031.6 16953.1 
29637.2 35751.6 28874 29606.5 31375 27007.8 4569.74 30267.2 23549.3 
25519.4 40481.6 27736.8 30519.7 25333.5 39628.6 6318.33 21615.8 25601.1 
7336.48 38270.4 30193.5 29138.5 23239.4 45723 5521.79 20777.2 30018.8 
6266.25 17710.9 31390.6 29087.9 35423.6 26702.2 28046.2 34468.8 23398.4 
9421.88 22433 17984.4 28927 21930.6 43376.9 27210.9 17917.2 44796.9 
5203.55 29202.2 20623.8 27987.3 34634.1 23781.5 6070.31 29570.3 16923.2 
5730.31 29438.4 18283.5 5759.91 32406.2 16953.1 15657.3 41554.6 22590.5 
29265.1 21872.3 37814.7 15594.1 41187.7 17142.6 14578.1 40503.6 13859.4 
28274.9 20405.5 43916.6 26953.1 17580 41187.5 4661.31 31393.4 28899.5 
29957.5 25219.9 32556.2 6883.25 21078.6 24865.6 9421.88 19343.4 22109.4 
29324.1 24436.7 31433.1 29074.4 25960.9 28039.1 6418.88 18043.5 31130.6 
7875 14518.2 32421.9 26618.6 33418.2 20736.6 25441.3 31632.8 18242.2 
9114.87 20019.1 22256.8 6906.45 37871.5 27130 8703.2 23210.4 18597.8 
10401.6 24414.1 14117.2 6309.15 18883.7 30421 5967.39 31346.6 17056 
7332.56 33953.1 13601.6 27203.4 18052.6 44516.9 25664.1 14846.1 45054.7 
9425.79 24185.2 16073.5 8648.44 26476.6 14328.6 27726.2 20042.9 34652.9 
6376.9 32128.6 16019.6 7681.12 30343.8 12828.1 28048 23131.8 29050.8 
27032.9 18553.3 37861.6 22828.1 32664.1 14025.4 25425.3 31700.4 18376.5 
24375 30343.8 16583.9 7438.16 15575.7 32034.5 6843.75 14527.5 35773.4 
24514.2 30710 16785.7 23343.8 30343.8 14567.8 7212.32 15177.5 33455.3 
9679.69 12227.8 35000 7359.79 33713.2 14001.8 9370.31 35757.8 11796.9 
25653.9 15230.6 44738.2 23868.7 12554.7 44539.1 15208.1 40927.7 15895 
12257.8 38670.1 15406.2 26811.6 23197.6 26069.3 26003.3 24929.7 22882.8 
25853.3 18331.7 31747.1 8742.08 13348.6 34413 8390.62 12424.8 37578.1 
6968.02 14668.2 35568.1 6761.25 14101.6 38351.6 9640.29 12477.3 34938.9 
11742.2 11207.9 36031.2 8283.17 13897.3 34125.7 10710.9 12255.6 32679.7 
6181.79 36176.4 21468.1 24069.4 30570.9 15942.9 22828.1 26992.2 15098.9 
24024.5 12970.1 44628.9 21539.1 10361.2 44796.9 23345.1 30278.9 14653.6 
21539.1 29312.5 11743.2 26426 24756.6 23889.8 22982.8 27915.5 15045 
21539.1 26685.9 13085.9 26101.5 24999.6 22951.7 25406.2 25960.9 20282 
6666.37 13967.3 38032.2 6127.03 12812.5 41187.5 6461.47 13528.5 39231.2 
8648.44 11007.8 40624.4 22874.5 27269.2 15082.7 23343.8 25187.5 17418.2 
21753.5 27060.8 13253.9 20286.1 26992.2 10507.8 9358.97 37562.5 15406.2 
22896 17473.9 27529 21796.9 18310.1 24171.9 22643.6 17302.1 27372.6 
20250 14341.8 29843.8 29006.5 25978.5 28403.3 22102.4 16942.3 27157.8 
20250 15734 26750 22203.6 18562.9 24547.7 21796.9 19648.7 22109.4 
21918.9 18385.9 24284.6 18703.1 16568.3 23914.1 20294.5 14690.5 29776.8 
29466.4 32870.7 27227.9 19667.9 17113.6 24025.2 24392.5 21578.1 23140.6 
25095.7 22268.2 23655.7 24022.3 23125 20562.5 16903.6 11781.2 33195.3 
19218.8 19449.6 19789.1 24093.7 22644.6 21428.5 21848.4 21835.9 19015.6 
21849.4 21745.6 19282.2 20300.5 21062.5 17984.4 20765.2 21267.4 18373.7 
19734.4 22152.5 15664.1 15557.6 44771.5 50226 15543.8 43980.3 45778.2 
12237.5 41839.5 42432.6 11765.2 41384.4 41324.2 10255.6 40161.4 41007.9 
22916.1 39658.3 40485.9 21452.5 40314.7 39369.5 24013.9 39186.6 40590.5 
16236.3 41386.2 37215.6 6161.47 33242.3 41535.2 5296.88 33726.2 39382.8 
6887.58 31884.5 45290.6 7799.72 32148.4 47117.2 7234.18 31984.8 45984.8 
29353.9 35573.4 40080.7 5627.5 32160.9 40875.4 4723.5 31632.8 38609.4 
29194.9 36471.7 37085.5 25029.2 39761.1 34178.9 30406.3 33804.8 40235.1 
31335.9 31940.1 40156.2 29249.9 36559.6 36347.5 17069 41282.6 29866.6 
13263.7 41255 33039.7 5488.79 33745.8 39466.2 4207.87 29312.5 37320.3 
4727.62 32921.9 35515.6 31125 32369.3 39931.2 32153.7 30343.8 38351.6 
30106.7 37046.9 32679.7 6770.53 37304.7 32421.9 4207.87 28023.4 25976.6 
6573.15 37003.5 33041 5755.78 36015.6 30875 26722.4 39531.6 32411.6 
28868.2 38593.8 29328.1 23402.6 41311 26915.2 12591.7 40856.1 25462.1 
10405.7 40398.4 25718.8 27218.2 40140.6 29585.9 6100.94 36375.1 32124 
5243.25 34984.4 31906.2 4722.47 33437.5 30101.6 5581.81 23205.3 26060.8 
5958.94 22867.2 24171.9 18187.5 42059.8 22625 31441.1 29064.6 33593.7 
30634.7 28539.1 30875 15436 41424.6 25774.9 18854.1 42052.8 23024.9 
30798.1 28500.5 31536.8 30246.9 27250 30359.4 6068.97 22831 24343.2 
6782.91 22351.6 22625 23366.2 40489.6 21018 23601.6 39694.1 19789.1 
29504.9 24976.2 45232.9 29015.6 24383.1 47632.8 5920.06 25216.8 22588.3 
22671.5 40639.3 19762.9 22054.7 40012.8 17468.8 28556.6 38604.9 29534.9 
28527.8 38335.9 27781.2 25352.8 37996.4 20565.1 26179.7 36531.2 20688.3 
5241.8 29226.6 20400.8 4923.56 31117.2 19531.2 20831.6 41687.5 19015.6 
30420.2 23640.6 36804.7 13394.4 41004.4 25994.8 29279.8 24703.4 46336.8 
29085.8 26734.4 48148.4 30323.7 23768.7 37340.2 22221.2 39983.3 17888.5 
22054.7 38593.8 16042.5 29088.4 32440.5 25941.4 28574.2 33179.7 24429.7 
6184.78 26998.6 19310.7 7101.56 24929.7 18968.2 22572.5 40727.8 19688.3 
21544.2 42203.1 20820.3 7222.63 19356.4 26143.3 8390.62 17804.8 25718.8 
26362 33517.9 20182.1 9143.23 23389.4 17589.6 10453.1 22609.4 16265.3 
9164.06 39699.2 27265.6 6753.21 25715.9 19098.4 7857.47 25187.5 16953.1 
10425.3 20804.7 18757.8 13247.9 40603.8 20688.3 12225.8 40140.6 19273.4 
6068.46 29355.1 17295.8 7101.56 28438 15406.2 7370.41 15456.3 32460.7 
6328.12 16370.3 33453.1 28175.2 21062.5 32421.9 6933.57 28831.9 15577.7 
7682.16 28796.9 13859.4 7649.26 38670 25526.8 11226.6 40198.4 21593.8 
28059.4 20960.2 32524.8 28044.2 21578.1 31132.8 7639.15 15089.3 32212.7 
9164.06 13997.4 30875 25436.5 31653.1 18282.5 24375 32406.2 16566.4 
8906.25 16098.1 27523.4 7617.19 38593.8 21823.7 7736.51 30428.2 13104 
8713.41 29312.5 11281.2 8860.57 14319.7 31019.6 9937.5 14193.3 29328.1 
8476.63 29722 11647.7 8906.25 30085.9 10383 8890.16 26215.4 14327.3 
8845.41 27507.8 12828.1 25421.5 16628.6 38471.9 24255.4 14875 40156.2 
9679.69 39699.2 22882.8 24184.2 16937.5 30617.2 8979.06 35366.3 12464.4 
10453.1 36904.6 12312.5 27452.6 22922.2 27959.8 26179.7 21508 27007.8 
9389.8 35661.6 11933 10710.9 36273.4 10719.2 27208.7 17957.8 44712.9 
26437.5 16084.7 47632.8 23263.9 33603.5 15295.4 23601.6 32148.4 15354.7 
8646.07 12548 36867.9 9537.38 11523.4 38609.4 22785.9 32751.1 14045.7 
22054.7 31632.8 12283.6 22028 31684.6 12353.6 21332.8 30859.4 11023.4 
26236.2 21619.2 27023.7 24926.7 20289.1 25976.6 22842 27075.3 15094.1 
22054.7 25860.9 14375 21444.6 30865.6 11238.2 20790.4 29312.5 9992.19 
28443.8 27463.9 25633.3 27984.4 28281.2 23839.8 8267.91 11306.7 40592.1 
9164.06 9914.69 41703.1 25629.6 26086.4 20853.9 25409.3 27507.8 19273.4 
23127.9 26145.1 16343.9 22116.6 24156.2 16179.7 22420 24752.9 16229 
21130.7 24156.2 14632.8 21339.5 24353.4 14811.1 20135.5 24414.1 12828.1 
29017.7 29054.7 25460.9 20296.1 26936.5 10733.8 19064.1 26734.4 8960.94 
28867.1 28640.8 25476.5 28500 29570.3 24350.3 24603.5 21785.1 23295.1 
23601.6 20031.2 23827.4 27888.5 30085.9 23140.6 28067.1 30404 23453.7 
27493.5 30859.4 21851.6 27536.6 30686.6 22103.7 26695.3 30503.6 20562.5 
24055.1 22904 20960.9 24908.2 24414.1 20820.3 20497.5 15894.8 26932.3 
18445.3 14552.2 27265.6 18992.5 16731.9 23947.4 17929.7 15373.1 25460.9 
20439.9 21124 18101.2 19218.8 20013.7 18500 15844.8 44553.1 48094.5 
17156.2 44281.1 46343.8 21562.8 43234.4 48148.4 12839.8 41774.8 41622.7 
9073.31 39625 42218.8 22080.7 41163.7 43710.8 14835.9 41745.2 40414.1 
26819.1 38078.1 43250 16125 41230.7 33710.9 6795.9 33837.9 42704.3 
6256.97 32148.4 42734.4 6568.51 36913.2 34576.1 23327.9 39807.9 36943.3 
7788.37 29570.3 49179.7 23343.8 40195.3 33968.8 27920.3 37713.3 36018.6 
11432.6 40711.5 38138.5 11742.2 40685.1 37320.3 4336.78 29355.8 37664.9 
4265.62 30678.9 36546.9 30710 29759.1 43219.2 26079 39618.8 33083.2 
27519.3 38851.6 33453.1 16898.4 41246.1 27523.4 5781.25 23110.2 46480.6 
5617.59 21578.1 46859.4 5998.85 22969.1 47428.6 6270.37 23640.6 48921.9 
31565.2 29185.4 35228.3 31622.6 31890.6 32164.1 16495.9 41654.4 25321.4 
17929.7 41745.2 24945.3 29834.4 26165.3 44726.2 30057.2 24929.7 44023.4 
31461.8 28099.3 38615.4 31593.8 26913.8 37835.9 23271.9 41425.3 24325.1 
22828.1 42051.5 23140.6 31062.2 26824.4 34434.5 31133.8 26992.2 33710.9 
29213.6 37562.5 28812.5 4896.85 33650.2 31299.6 5222.62 34726.6 30359.4 
4709.06 23640.6 30101.6 16031.7 41630.2 21639.4 15558.8 41429.7 20304.7 
4314.41 28525.5 26052 4697.72 27507.8 23914.1 23589.8 40067.1 20488 
24375 39460 20304.7 9666.59 39957 29427.6 8340.09 39367.2 30101.6 
27210.9 39976.7 27265.6 4791.77 33631.2 30340.4 4781.25 34289.3 28812.5 
5861.69 22601.2 25886.1 5793.94 21062.5 27265.6 11827.2 40681.9 24600.2 
10710.9 40210.8 23656.2 26981.1 39975.3 27278.1 27726.6 38984.6 26750 
[...]
CELL_DATA 1299
SCALARS radius float
LOOKUP_TABLE default
100 96.4176 96.4176 92.9635 92.9635 92.9635 89.6332 89.6332 89.6332 
86.4222 89.6332 83.3262 86.4222 86.4222 74.6879 86.4222 83.3262 83.3262 
80.3411 83.3262 72.0123 80.3411 80.3411 80.3411 66.9452 83.3262 80.3411 
83.3262 80.3411 77.463 77.463 77.463 77.463 74.6879 64.547 80.3411 
74.6879 74.6879 62.2346 72.0123 74.6879 74.6879 62.2346 72.0123 66.9452 
60.0051 69.4326 72.0123 64.547 69.4326 69.4326 55.7829 57.8555 69.4326 
55.7829 66.9452 74.6879 77.463 62.2346 74.6879 66.9452 69.4326 62.2346 
66.9452 62.2346 57.8555 66.9452 57.8555 64.547 64.547 53.7845 60.0051 
53.7845 66.9452 74.6879 60.0051 53.7845 64.547 57.8555 77.463 69.4326 
60.0051 55.7829 66.9452 60.0051 64.547 55.7829 62.2346 55.7829 57.8555 
72.0123 62.2346 50 66.9452 57.8555 48.2088 62.2346 53.7845 57.8555 
50 72.0123 55.7829 50 64.547 69.4326 50 60.0051 53.7845 
60.0051 50 57.8555 50 55.7829 44.8166 51.8578 43.2111 57.8555 
51.8578 57.8555 51.8578 60.0051 51.8578 64.547 50 44.8166 51.8578 
46.4818 48.2088 44.8166 51.8578 48.2088 72.0123 55.7829 46.4818 53.7845 
46.4818 53.7845 46.4818 55.7829 51.8578 46.4818 53.7845 50 48.2088 
44.8166 46.4818 41.6631 50 44.8166 48.2088 41.6631 55.7829 60.0051 
53.7845 57.8555 51.8578 62.2346 55.7829 51.8578 57.8555 50 55.7829 
50 53.7845 64.547 53.7845 51.8578 57.8555 50 43.2111 46.4818 
55.7829 50 51.8578 46.4818 50 43.2111 92.9635 77.463 89.6332 
86.4222 83.3262 86.4222 86.4222 80.3411 83.3262 74.6879 69.4326 72.0123 
64.547 69.4326 80.3411 72.0123 66.9452 74.6879 77.463 77.463 64.547 
72.0123 77.463 77.463 72.0123 60.0051 64.547 69.4326 60.0051 64.547 
69.4326 64.547 74.6879 69.4326 72.0123 64.547 74.6879 66.9452 62.2346 
66.9452 72.0123 69.4326 69.4326 66.9452 60.0051 62.2346 66.9452 60.0051 
72.0123 66.9452 62.2346 55.7829 64.547 55.7829 64.547 60.0051 72.0123 
66.9452 66.9452 62.2346 57.8555 66.9452 64.547 62.2346 55.7829 62.2346 
57.8555 53.7845 69.4326 72.0123 69.4326 64.547 72.0123 60.0051 55.7829 
62.2346 60.0051 62.2346 57.8555 60.0051 57.8555 60.0051 53.7845 60.0051 
60.0051 55.7829 64.547 60.0051 55.7829 53.7845 62.2346 55.7829 57.8555 
53.7845 57.8555 53.7845 64.547 55.7829 51.8578 69.4326 60.0051 69.4326 
64.547 57.8555 53.7845 57.8555 53.7845 60.0051 64.547 51.8578 46.4818 
55.7829 53.7845 48.2088 46.4818 55.7829 51.8578 64.547 57.8555 64.547 
55.7829 48.2088 44.8166 62.2346 57.8555 44.8166 43.2111 60.0051 55.7829 
53.7845 51.8578 46.4818 41.6631 51.8578 48.2088 50 46.4818 60.0051 
57.8555 48.2088 46.4818 48.2088 46.4818 57.8555 55.7829 43.2111 38.7315 
51.8578 46.4818 48.2088 44.8166 46.4818 43.2111 44.8166 40.1706 53.7845 
44.8166 43.2111 55.7829 53.7845 55.7829 51.8578 53.7845 57.8555 53.7845 
55.7829 50 53.7845 50 53.7845 50 51.8578 50 48.2088 
44.8166 83.3262 74.6879 74.6879 83.3262 74.6879 77.463 80.3411 72.0123 
77.463 77.463 72.0123 80.3411 80.3411 64.547 77.463 69.4326 83.3262 
77.463 64.547 60.0051 77.463 74.6879 69.4326 72.0123 62.2346 60.0051 
60.0051 55.7829 69.4326 72.0123 69.4326 64.547 74.6879 69.4326 77.463 
72.0123 69.4326 64.547 72.0123 64.547 66.9452 77.463 74.6879 69.4326 
66.9452 64.547 69.4326 66.9452 62.2346 60.0051 72.0123 69.4326 69.4326 
74.6879 69.4326 64.547 55.7829 64.547 60.0051 72.0123 69.4326 64.547 
57.8555 64.547 64.547 57.8555 50 60.0051 60.0051 53.7845 60.0051 
55.7829 53.7845 50 62.2346 60.0051 69.4326 64.547 64.547 60.0051 
60.0051 57.8555 57.8555 55.7829 62.2346 62.2346 60.0051 55.7829 60.0051 
57.8555 60.0051 55.7829 69.4326 66.9452 64.547 62.2346 57.8555 55.7829 
53.7845 62.2346 57.8555 55.7829 66.9452 62.2346 53.7845 51.8578 74.6879 
72.0123 55.7829 51.8578 66.9452 64.547 53.7845 50 64.547 60.0051 
53.7845 51.8578 60.0051 57.8555 66.9452 62.2346 60.0051 55.7829 53.7845 
62.2346 57.8555 53.7845 50 48.2088 46.4818 57.8555 55.7829 51.8578 
60.0051 57.8555 50 46.4818 60.0051 55.7829 57.8555 55.7829 53.7845 
51.8578 53.7845 50 51.8578 50 48.2088 66.9452 64.547 66.9452 
64.547 64.547 48.2088 44.8166 55.7829 53.7845 51.8578 41.6631 40.1706 
50 44.8166 48.2088 43.2111 53.7845 50 46.4818 43.2111 44.8166 
43.2111 53.7845 50 50 46.4818 48.2088 46.4818 46.4818 44.8166 
44.8166 43.2111 51.8578 50 53.7845 50 48.2088 46.4818 46.4818 
43.2111 86.4222 83.3262 80.3411 72.0123 74.6879 72.0123 72.0123 66.9452 
69.4326 74.6879 72.0123 66.9452 80.3411 74.6879 72.0123 64.547 69.4326 
64.547 74.6879 77.463 74.6879 83.3262 80.3411 69.4326 80.3411 80.3411 
77.463 80.3411 77.463 77.463 72.0123 74.6879 66.9452 64.547 77.463 
80.3411 77.463 74.6879 69.4326 66.9452 69.4326 74.6879 69.4326 80.3411 
80.3411 77.463 77.463 74.6879 77.463 72.0123 72.0123 69.4326 80.3411 
77.463 62.2346 62.2346 60.0051 74.6879 66.9452 64.547 72.0123 66.9452 
77.463 74.6879 66.9452 64.547 69.4326 72.0123 69.4326 77.463 74.6879 
72.0123 66.9452 62.2346 57.8555 69.4326 66.9452 74.6879 72.0123 69.4326 
66.9452 62.2346 66.9452 64.547 72.0123 66.9452 72.0123 66.9452 74.6879 
72.0123 72.0123 69.4326 69.4326 64.547 72.0123 69.4326 64.547 60.0051 
66.9452 64.547 62.2346 72.0123 69.4326 62.2346 60.0051 64.547 69.4326 
62.2346 60.0051 69.4326 66.9452 64.547 62.2346 60.0051 57.8555 57.8555 
55.7829 57.8555 55.7829 66.9452 64.547 62.2346 55.7829 53.7845 57.8555 
55.7829 66.9452 64.547 60.0051 57.8555 66.9452 64.547 53.7845 66.9452 
57.8555 55.7829 62.2346 60.0051 72.0123 69.4326 55.7829 53.7845 60.0051 
60.0051 57.8555 55.7829 53.7845 60.0051 57.8555 60.0051 57.8555 62.2346 
57.8555 64.547 60.0051 62.2346 57.8555 53.7845 51.8578 64.547 66.9452 
64.547 66.9452 64.547 51.8578 50 62.2346 60.0051 50 48.2088 
51.8578 50 64.547 62.2346 51.8578 50 50 48.2088 53.7845 
51.8578 53.7845 51.8578 50 48.2088 66.9452 64.547 55.7829 51.8578 
51.8578 50 46.4818 43.2111 60.0051 55.7829 57.8555 55.7829 60.0051 
57.8555 46.4818 44.8166 51.8578 50 50 46.4818 44.8166 43.2111 
50 48.2088 50 48.2088 44.8166 43.2111 46.4818 44.8166 62.2346 
60.0051 43.2111 41.6631 60.0051 57.8555 64.547 62.2346 48.2088 46.4818 
55.7829 51.8578 55.7829 53.7845 51.8578 50 51.8578 50 50 
48.2088 55.7829 53.7845 51.8578 50 53.7845 51.8578 53.7845 51.8578 
51.8578 50 44.8166 43.2111 89.6332 86.4222 83.3262 80.3411 77.463 
74.6879 86.4222 80.3411 77.463 74.6879 77.463 74.6879 66.9452 64.547 
74.6879 72.0123 86.4222 83.3262 72.0123 77.463 72.0123 77.463 80.3411 
77.463 74.6879 72.0123 80.3411 74.6879 72.0123 83.3262 80.3411 72.0123 
80.3411 77.463 69.4326 86.4222 77.463 69.4326 66.9452 74.6879 66.9452 
64.547 69.4326 66.9452 72.0123 69.4326 72.0123 66.9452 69.4326 62.2346 
64.547 62.2346 69.4326 66.9452 69.4326 66.9452 72.0123 69.4326 66.9452 
66.9452 69.4326 80.3411 74.6879 69.4326 66.9452 77.463 74.6879 72.0123 
57.8555 74.6879 66.9452 72.0123 69.4326 64.547 62.2346 69.4326 66.9452 
64.547 64.547 62.2346 66.9452 64.547 72.0123 66.9452 66.9452 64.547 
69.4326 66.9452 66.9452 64.547 72.0123 69.4326 60.0051 57.8555 60.0051 
62.2346 60.0051 55.7829 53.7845 66.9452 64.547 72.0123 69.4326 72.0123 
64.547 74.6879 72.0123 62.2346 60.0051 57.8555 55.7829 57.8555 55.7829 
66.9452 62.2346 60.0051 66.9452 57.8555 55.7829 64.547 62.2346 62.2346 
57.8555 62.2346 60.0051 55.7829 60.0051 57.8555 62.2346 60.0051 69.4326 
64.547 55.7829 53.7845 64.547 60.0051 57.8555 55.7829 66.9452 64.547 
57.8555 55.7829 55.7829 53.7845 57.8555 55.7829 62.2346 57.8555 57.8555 
55.7829 60.0051 57.8555 60.0051 57.8555 66.9452 64.547 57.8555 53.7845 
69.4326 66.9452 69.4326 64.547 53.7845 51.8578 62.2346 60.0051 66.9452 
62.2346 62.2346 60.0051 46.4818 44.8166 64.547 60.0051 62.2346 57.8555 
57.8555 55.7829 57.8555 53.7845 51.8578 50 69.4326 66.9452 53.7845 
50 57.8555 55.7829 51.8578 50 69.4326 66.9452 43.2111 41.6631 
48.2088 46.4818 50 48.2088 41.6631 40.1706 46.4818 44.8166 43.2111 
40.1706 46.4818 44.8166 60.0051 57.8555 51.8578 50 51.8578 50 
48.2088 44.8166 46.4818 44.8166 53.7845 50 55.7829 51.8578 48.2088 
44.8166 51.8578 50 46.4818 44.8166 46.4818 44.8166 89.6332 83.3262 
86.4222 83.3262 80.3411 77.463 89.6332 83.3262 86.4222 83.3262 77.463 
72.0123 72.0123 69.4326 69.4326 66.9452 80.3411 77.463 74.6879 72.0123 
86.4222 83.3262 66.9452 64.547 80.3411 77.463 80.3411 74.6879 77.463 
72.0123 83.3262 80.3411 74.6879 72.0123 83.3262 80.3411 83.3262 77.463 
77.463 74.6879 83.3262 77.463 80.3411 77.463 80.3411 77.463 74.6879 
72.0123 74.6879 72.0123 77.463 72.0123 77.463 72.0123 74.6879 72.0123 
74.6879 72.0123 66.9452 64.547 66.9452 64.547 72.0123 69.4326 74.6879 
72.0123 64.547 62.2346 74.6879 69.4326 69.4326 66.9452 66.9452 64.547 
77.463 74.6879 74.6879 72.0123 72.0123 69.4326 74.6879 69.4326 77.463 
74.6879 72.0123 69.4326 62.2346 57.8555 64.547 62.2346 74.6879 72.0123 
60.0051 57.8555 69.4326 66.9452 74.6879 72.0123 57.8555 55.7829 74.6879 
72.0123 60.0051 55.7829 74.6879 72.0123 64.547 62.2346 57.8555 55.7829 
69.4326 66.9452 72.0123 66.9452 69.4326 66.9452 69.4326 66.9452 69.4326 
64.547 74.6879 69.4326 62.2346 60.0051 66.9452 62.2346 72.0123 69.4326 
64.547 62.2346 72.0123 66.9452 64.547 60.0051 62.2346 60.0051 69.4326 
66.9452 69.4326 66.9452 51.8578 50 62.2346 60.0051 64.547 62.2346 
60.0051 57.8555 62.2346 60.0051 69.4326 66.9452 66.9452 64.547 57.8555 
55.7829 64.547 62.2346 69.4326 66.9452 55.7829 53.7845 62.2346 60.0051 
51.8578 48.2088 57.8555 53.7845 69.4326 64.547 50 48.2088 55.7829 
53.7845 57.8555 55.7829 66.9452 64.547 62.2346 57.8555 57.8555 55.7829 
69.4326 64.547 55.7829 53.7845 55.7829 53.7845 64.547 62.2346 60.0051 
57.8555 53.7845 51.8578 66.9452 64.547 60.0051 57.8555 64.547 62.2346 
55.7829 53.7845 55.7829 53.7845 66.9452 64.547 62.2346 60.0051 66.9452 
62.2346 62.2346 60.0051 53.7845 51.8578 64.547 62.2346 51.8578 50 
62.2346 60.0051 53.7845 51.8578 46.4818 44.8166 48.2088 46.4818 60.0051 
57.8555 44.8166 43.2111 50 48.2088 48.2088 46.4818 55.7829 51.8578 
51.8578 50 53.7845 50 51.8578 50 46.4818 44.8166 40.1706 
38.7315 57.8555 55.7829 41.6631 40.1706 44.8166 43.2111 60.0051 57.8555 
53.7845 51.8578 53.7845 51.8578 51.8578 48.2088 50 48.2088 51.8578 
50 51.8578 50 44.8166 43.2111 86.4222 83.3262 80.3411 77.463 
74.6879 72.0123 69.4326 66.9452 83.3262 80.3411 74.6879 72.0123 83.3262 
80.3411 77.463 74.6879 
