# vtk DataFile Version 4.1
vtk output
ASCII
DATASET POLYDATA
POINTS 1300 float
16125 47875 54078.1 15403.1 46113.6 52634.4 16702.5 45407.6 50901.9 
18440.5 44082.8 47624.6 19346.2 43857 47088.9 22307 41910.4 46627.6 
12407.1 41792 42654.7 17898.9 42421.6 42956.4 11205.6 40708.5 41087.6 
22963.3 40063.8 41217.7 8907.38 36872.9 43740.2 27792.4 37090.8 43964.3 
8123.22 34922 44337.7 7266.25 36791.3 37234.4 16692.7 41609.7 37360.4 
16295.3 41340.8 37151.9 23410.1 39449.2 40474.7 7147.15 32088.5 44899.1 
28323.8 36518.6 44005.7 22104.1 40309.4 36109 6060.51 32159 41597.2 
5340.91 34054.3 34425.1 29572.8 35304.5 40044.6 16675.3 41404.6 32533.3 
30251.8 32557.2 43705.5 26560.6 38235.8 37040.6 17909.5 41586.9 30106.4 
5949.56 27405.1 44355.3 5853.65 26615.8 44664.4 4547.77 32178.8 31218.2 
30830.2 31368.7 43615.5 31099.6 33212 36746.2 31496.7 33189.4 36065.2 
4426.09 28786.7 30555.9 28707.7 37709.9 33844.3 13739 41127.7 30816.2 
16034.5 41398.9 26362 16382.8 41745.2 21851.6 4716.8 25855.1 27236.2 
31232.3 31368.7 40860.1 30049.6 27206.7 44697.3 29087.8 23125 45054.7 
28962.2 37751.8 32128.1 26821.1 40140.6 30101.6 27552.9 39311.7 30305.5 
26695.3 40192.2 26492.2 23485.3 41223.6 25834.3 25406.2 39156.8 21593.8 
31379.9 30677.3 34770.7 4377.62 30360.4 25013.3 4726.59 29312.5 21078.1 
4720.72 25026.8 26895.9 24676.3 39942.2 23205.2 22476.5 40656.2 19015.6 
29253 37799.8 30168.1 29546.7 34468.8 26750 4721.95 24778.4 26793.8 
5453.01 25079 23589 7713.09 23125 19531.2 7735.47 37842 32438 
29267.4 23793.9 44633.3 28515.5 20031.2 42734.4 16108.3 41571.5 22519.5 
25079.7 39163.1 21997.9 25315.5 36789.1 19531.2 30519 26121.7 39381.2 
29273.4 21527.6 37320.3 29141.7 23325.7 44928.3 5846.33 22352 25499.8 
31175.2 29721.9 32043.7 29789.1 25304 30875 5256.45 21815.5 29158.2 
29233.3 35706.8 27513.2 28042.1 34984.4 23656.2 4820.44 29198.4 21917.4 
4754.75 29278.3 21329.9 5243.25 31632.8 18500 29604.5 30085.9 27007.8 
29855.5 23690.6 37845.5 29605.5 22867.2 34742.2 25244.7 37501.3 20271.2 
29680.5 23114.2 35673.2 28500 20490.2 35000 5953.78 37046.9 25976.6 
28801.2 21461.1 43455.9 27328.5 17968.8 45828.1 6350.91 21529.7 25236.4 
8521.59 18484.4 24687.5 27950.9 35085.6 23845.6 8132.81 20804.7 22065 
29780.7 26107.6 30671.5 7919.34 23479.8 19949.8 10195.3 22248.4 16953.1 
25465 32921.9 18500 6103.52 27117.7 19626.2 7617.19 25655.7 17210.9 
24312.5 37093.2 18510.2 23859.4 34468.8 16080.7 15403.8 41213.7 18523.3 
15351.6 40700.6 13343.8 5718.55 27741.9 20313.5 6787.03 28796.9 15921.9 
16300.5 41693.1 22051.9 19476.6 42260.9 20304.7 7617.19 14845.1 32679.7 
5284.5 31249.7 18830.9 6479.72 33437.5 15406.2 13026.9 40821.5 24102.9 
11484.4 40156.1 20562.5 29198.9 21978.1 37654.4 26953.1 18101.8 38093.8 
7014.01 37918.2 27740.4 8132.81 39160.9 24171.9 7526.13 25948.8 17429.9 
9885.94 24929.7 14117.2 23386.2 41589.5 25212 28732.7 21289.6 34874.7 
27210.9 19640.4 32421.9 6225 37063.1 26124.7 5240.16 34984.4 22625 
27529.2 18505.5 45115.4 25921.9 15067.8 45312.5 6657.2 19776.1 27073.6 
8521.59 15906.2 28812.5 28401.5 23894.2 28946.9 26695.3 22867.2 26186.9 
6674.42 29049 16326.2 6576.86 33026.2 15635.9 8192.62 34468.8 12312.5 
23772 34996.9 16353.5 26934.2 18489.5 38060.5 6987.51 16187.1 32410.5 
6843.75 14549.1 35515.6 25696 33006.2 19039.5 24420.4 30343.8 16695.3 
6909.85 15302.6 34087.2 9164.06 12730 34742.2 7794.66 38733.6 24738.3 
27540.5 19971.2 33519.6 24890.6 16937.5 32729.2 8683.91 16158 28633.1 
10195.3 13833.4 29585.9 27126.3 19696 32548.6 25406.2 18832.9 29328.1 
7112.7 30135.8 14418.9 8845.41 28796.9 11539.1 8073.21 34440.2 13159.5 
9612.66 36015.6 11539.1 25218 16402.9 38547.2 23624.2 14359.4 39382.8 
26031 15604.3 45151 23601.6 12270.1 44539.1 27027.2 23252.8 26541.7 
25775.4 23640.6 23398.4 24370.8 30477.4 16752.6 23149.9 28539.1 14890.6 
25399.2 17720.5 32574.7 23412.8 16679.7 30101.6 22337.2 30343.8 12570.3 
26451.4 23431.2 25095.8 27014 26218.8 23398.4 7052.68 14579 35262.4 
8132.81 12448.5 38093.8 7113.83 37512.9 21231.8 8132.81 38087.4 18242.2 
23740.4 17068.2 30171.1 22312.5 16877.7 27523.4 6508.9 33314.1 15475.1 
6843.75 35808.3 16695.3 26628.1 25351.4 23586.4 25664.1 26992.2 20497.5 
26794.9 22982.9 26293.4 24926.7 20289.1 25976.6 7808.79 13087.6 37244.3 
6328.12 12812.5 40615.2 23512.7 12664.8 44662.7 20507.8 9869.31 44281.2 
26889.4 26137.3 23422.1 27529.6 28796.9 22882.8 23711.5 29430.7 15747.2 
23343.8 25703.1 16902.6 8075.79 12528.3 38057.6 8906.25 10690.2 40929.7 
23110.9 28596.8 15002.6 20825.4 25703.1 12570.3 8081.04 37756.6 18477 
9112.5 37562.5 15664.1 22776.2 17162.1 28017 22054.7 18432.8 24429.7 
22225.6 30846 12665.8 20765.6 28281.2 10402.6 23511.1 16796.2 30122.4 
21023.4 14829.6 29843.8 23028.3 26364.7 16330.5 21796.9 23805.6 16179.7 
20764.4 28345.3 11067.7 19476.6 26174.4 9992.19 22451.6 16963 27671.5 
20250 15906.2 26543.8 22271.1 18051.6 25505.9 19218.8 16920 23656.2 
30057.2 29890.8 28273.2 22119.6 18318.4 24752.5 22828.1 20496.3 22109.4 
21370.3 15114.4 30151.9 18703.1 13070.3 31507.2 20214.9 17483.4 23978.8 
18703.1 18115.2 21335.9 19311.8 13741.3 30836 16382.8 12753.7 30101.6 
27379.9 28595.5 22969 27726.6 31117.2 22574.5 25743.8 23511.5 23559.4 
23859.4 23241.5 20304.7 18712.2 13178.1 31454.9 16898.4 11779.2 33195.3 
20423.4 14482.7 30466.6 17671.9 13992.2 28039.1 26232.4 33725.9 20141 
26458.1 30859.4 20046.9 17442.6 12198.9 32673.2 17929.7 11751.3 35773.4 
22363.6 19718.5 22745.7 21281.2 20385 20046.9 21338.8 20433.6 20224.7 
20250 21320.3 17597.7 19075.2 18138.2 21688.6 18445.3 19498.1 18757.8 
15896.9 45845.4 51976 19064.2 44636.4 50745.4 19441.1 44495.5 50052.5 
10059.9 38816.9 43147.2 20654.6 41486.5 42850.5 14835.9 41230.7 38867.2 
24147.9 39395.5 41818.1 25969.3 38170.1 41529.2 7632.65 33345.2 44859.9 
5706.38 32003.6 41130 22755.4 40044.2 38403.1 29543.7 35345.3 39942.3 
21708.6 40235.3 35513.2 14695.8 41064.9 35983.2 26695.3 37614.1 39382.8 
5445.37 30357.7 40980.6 30875.1 32002.1 41685.3 31131.8 32921.9 39640.6 
30275.1 34341.9 38527.3 30304.7 35375.2 36546.9 23639.9 39619.3 37058.9 
5518.08 32796 40326.3 24744.5 39880.3 34032.2 25406.2 40187 32164.1 
15524.8 41236.3 31458.3 13114.5 40704.6 35709.7 4523.44 25445.3 40736.8 
31615.9 33182.6 35861 31189.5 34984.4 33968.8 14993.6 41232.2 29570.7 
22807.8 41255.3 28442.1 18645.5 41695.5 28659.3 6923.57 36789.7 37114.1 
31851.6 28767 37835.9 18724.4 41741.2 26510.5 18960.9 41750.4 24945.3 
4327.4 27812.3 37686.1 4207.87 25445.3 37320.3 31628.9 28843.8 38139.4 
31458.7 26734.4 36546.9 11214.6 40476.4 29174.9 31501 27540.7 36851.6 
31335.9 27220.1 34742.2 9421.88 40000.4 25976.6 4921.5 34468.8 29843.8 
5232.11 25311.8 24683.2 5750.62 23382.8 24171.9 4543.55 29683.4 23951.4 
31244.4 27074.6 35056.3 30820.3 26334.2 33453.1 30131.4 34210.9 29070.3 
16047.7 41477 19723.3 16898.4 41745.2 18242.2 10710.9 40210.8 23656.2 
29452.7 34840.2 26979 5098.15 34524.8 29975.9 4523.44 32972.4 27781.2 
27467.9 39335.6 28394.8 27984.4 38642.2 26750 5554.69 26218.8 21194.7 
7240.16 21267.5 23311.2 7278.94 22351.6 21851.6 28557.2 21853.8 46087.2 
28046.2 20289.1 46085.9 29786.6 25545.1 30813.9 29948.9 24671.9 32164.1 
5033.7 29833.2 20008.2 5296.88 29570.3 18751.6 27710.3 38842 27036.9 
29518.5 34580.2 26818.7 29044.5 33179.7 24945.3 4635.12 33404.8 27906 
4265.62 32742.4 25718.8 25333.9 36842.6 19794.7 25664.1 34984.4 19140.4 
29088.8 26992.2 48148.4 7459.61 19630.3 25340.2 7829.62 18226.6 26234.4 
19219.6 42019.3 20651.8 21281.2 41884.5 20046.9 26953.1 37097.4 22625 
28468.9 20267.6 42986.9 27468.8 18145.1 42734.4 8000.09 20942.5 22191.1 
8906.25 20896.5 20562.5 12564.2 40621.8 23040.8 13546.9 40718.1 21593.8 
29557.3 22845.4 34887.6 29073.4 22093.8 33453.1 8719.39 25057.9 16212.6 
9765.28 23640.6 15921.9 4427.22 32982.5 26092.8 4707 33179.7 24171.9 
28474.3 20703.1 35044.4 8570.27 15981.7 28758.7 7555.31 15906.2 30617.2 
29583 28666.2 27726 29541.6 26734.4 28296.9 8805.7 20767.9 21060.3 
10453.1 19863.2 20046.9 23121.3 37145.6 16647.3 22368.2 35757.8 14632.8 
8093.01 20846 22102.9 9164.06 19127.9 22625 16371 41579 19160.5 
18187.5 42255.7 19273.4 6753.21 28872.5 16043.1 8021.44 26734.4 15148.4 
7428.26 15247.7 32598.9 8581.41 14359.4 31132.8 7733.61 14403.7 34139.2 
8446.31 13843.8 33195.3 13353.7 40693.4 21731.8 7320.19 32406.2 13085.9 
9060.53 25185.8 15360.7 8906.25 26218.8 14168.8 11854.6 40330 21970.8 
10195.3 39701.3 21593.8 28815.3 24558.2 29464.2 28500 22570.2 30359.4 
9638.33 25006.5 14490.3 10804.8 23640.6 14375 5903.87 36403.2 23703.3 
5952.75 36531.2 22109.4 24592.7 31213.6 17109.4 23400.5 30859.4 14890.6 
28446.7 22932 30045.5 27511 21320.3 29843.8 8386.09 29338.8 12154.8 
8906.25 30085.9 10383 18890 41747.6 25414.9 20765.6 42259.8 24687.5 
8158.8 39080.9 24225.8 9164.06 39658 23140.6 6906.45 14558.1 35439.6 
6328.12 14823.4 37062.5 25954.6 15228.8 45264 25406.2 14022.2 46859.4 
8879.23 13183 34386.8 10705.8 11781.2 33710.9 9078.57 12865.9 34635.6 
10710.9 11417.2 36031.2 9314.62 35714.7 12084.8 10453.1 36904.6 12312.5 
23506.4 17255.7 29291 23928.5 18226.6 28039.1 10111.6 36547.6 12244.2 
11484.4 36789.1 10891.4 27306.1 17978.7 45717.4 26437.5 16084.7 47632.8 
23807.8 34527.7 16172.5 23859.4 32664.1 15586.7 27148.4 27727.2 22954 
26953.1 28539.1 21728.8 8115.69 12472.4 38082.9 9937.5 11409 38093.8 
23034.1 27192.5 15751.5 22570.3 26218.8 15354.7 21791.1 16646 27333.2 
21562.8 16937.5 25976.6 21630.9 30064.4 11860 20795.5 30085.9 9992.19 
25683.8 26454 20896.1 24908.2 26476.6 19273.4 21877.7 26448.9 14120 
21317.3 24929.7 14117.2 8882.02 10707 40686.2 9421.88 9460.94 42333.2 
25225.5 26683.4 19790.7 24792.7 28023.4 17984.4 9079.09 37495 15713.4 
9548.72 37304.7 14375 20378.1 27694.1 10745 19476.6 27765.6 8839.25 
29631.1 30007.9 27080.8 28554.7 30859.4 24171.9 22614.4 20138.5 22402.1 
24117.2 21200.7 23140.6 24448.3 22840.3 21942.1 23601.6 22048.4 21335.9 
19508.3 17889.4 22558.8 20507.8 18990.7 21335.9 24036.1 23121.2 20795.9 
22486.8 22093.8 19531.2 16915.8 11886.3 33115.2 15351.6 11255.3 34226.6 
[...]
CELL_DATA 1299
SCALARS radius float
LOOKUP_TABLE default
100 92.9635 89.6332 86.4222 83.3262 89.6332 86.4222 86.4222 80.3411 
83.3262 80.3411 80.3411 83.3262 83.3262 80.3411 77.463 72.0123 77.463 
74.6879 72.0123 80.3411 77.463 80.3411 74.6879 74.6879 77.463 66.9452 
64.547 77.463 72.0123 72.0123 69.4326 74.6879 72.0123 74.6879 74.6879 
64.547 72.0123 69.4326 69.4326 55.7829 69.4326 57.8555 64.547 57.8555 
69.4326 57.8555 69.4326 72.0123 60.0051 69.4326 66.9452 57.8555 66.9452 
57.8555 66.9452 64.547 53.7845 72.0123 64.547 55.7829 69.4326 62.2346 
55.7829 66.9452 53.7845 62.2346 62.2346 66.9452 57.8555 66.9452 64.547 
57.8555 66.9452 62.2346 55.7829 55.7829 64.547 57.8555 60.0051 62.2346 
55.7829 64.547 62.2346 55.7829 60.0051 50 62.2346 51.8578 64.547 
57.8555 53.7845 53.7845 62.2346 53.7845 57.8555 51.8578 64.547 57.8555 
64.547 55.7829 66.9452 60.0051 60.0051 57.8555 51.8578 69.4326 57.8555 
60.0051 51.8578 69.4326 60.0051 57.8555 50 66.9452 60.0051 51.8578 
66.9452 55.7829 60.0051 51.8578 60.0051 48.2088 60.0051 51.8578 60.0051 
55.7829 48.2088 55.7829 55.7829 64.547 51.8578 55.7829 48.2088 60.0051 
50 64.547 57.8555 50 51.8578 48.2088 53.7845 50 55.7829 
48.2088 51.8578 46.4818 53.7845 50 55.7829 48.2088 55.7829 48.2088 
50 43.2111 55.7829 50 44.8166 53.7845 46.4818 57.8555 50 
62.2346 55.7829 53.7845 46.4818 53.7845 48.2088 51.8578 48.2088 53.7845 
51.8578 55.7829 51.8578 50 46.4818 48.2088 43.2111 48.2088 43.2111 
53.7845 46.4818 46.4818 41.6631 57.8555 50 50 44.8166 48.2088 
43.2111 51.8578 46.4818 44.8166 41.6631 44.8166 41.6631 48.2088 40.1706 
48.2088 44.8166 62.2346 46.4818 38.7315 50 43.2111 46.4818 38.7315 
46.4818 40.1706 44.8166 40.1706 51.8578 43.2111 44.8166 40.1706 48.2088 
43.2111 57.8555 55.7829 43.2111 40.1706 43.2111 40.1706 41.6631 37.344 
41.6631 36.0062 96.4176 86.4222 83.3262 86.4222 77.463 64.547 72.0123 
69.4326 74.6879 69.4326 77.463 74.6879 72.0123 77.463 66.9452 69.4326 
72.0123 64.547 74.6879 69.4326 72.0123 66.9452 66.9452 62.2346 77.463 
74.6879 60.0051 66.9452 57.8555 72.0123 72.0123 72.0123 80.3411 62.2346 
69.4326 64.547 64.547 60.0051 64.547 57.8555 72.0123 60.0051 55.7829 
62.2346 62.2346 66.9452 60.0051 69.4326 57.8555 53.7845 60.0051 66.9452 
60.0051 66.9452 62.2346 64.547 57.8555 62.2346 55.7829 55.7829 57.8555 
55.7829 60.0051 55.7829 62.2346 60.0051 60.0051 55.7829 60.0051 60.0051 
51.8578 60.0051 53.7845 57.8555 51.8578 64.547 55.7829 53.7845 62.2346 
57.8555 55.7829 60.0051 55.7829 55.7829 48.2088 66.9452 60.0051 60.0051 
55.7829 55.7829 51.8578 57.8555 53.7845 57.8555 50 44.8166 60.0051 
55.7829 51.8578 50 53.7845 50 53.7845 50 64.547 60.0051 
57.8555 55.7829 62.2346 60.0051 57.8555 55.7829 62.2346 53.7845 53.7845 
50 64.547 62.2346 62.2346 55.7829 51.8578 48.2088 62.2346 60.0051 
51.8578 48.2088 60.0051 53.7845 51.8578 50 66.9452 64.547 62.2346 
57.8555 55.7829 51.8578 53.7845 50 55.7829 53.7845 53.7845 50 
48.2088 44.8166 51.8578 48.2088 46.4818 43.2111 57.8555 55.7829 53.7845 
51.8578 46.4818 44.8166 51.8578 48.2088 46.4818 44.8166 44.8166 43.2111 
46.4818 44.8166 50 44.8166 44.8166 40.1706 50 46.4818 48.2088 
44.8166 51.8578 50 43.2111 40.1706 60.0051 55.7829 41.6631 38.7315 
48.2088 46.4818 43.2111 41.6631 46.4818 44.8166 41.6631 38.7315 43.2111 
41.6631 40.1706 37.344 38.7315 36.0062 96.4176 92.9635 80.3411 80.3411 
74.6879 83.3262 74.6879 83.3262 80.3411 74.6879 69.4326 72.0123 66.9452 
72.0123 66.9452 77.463 72.0123 64.547 74.6879 80.3411 74.6879 77.463 
72.0123 69.4326 74.6879 66.9452 69.4326 64.547 66.9452 72.0123 66.9452 
69.4326 66.9452 69.4326 64.547 77.463 72.0123 69.4326 64.547 64.547 
69.4326 66.9452 62.2346 60.0051 60.0051 64.547 62.2346 60.0051 64.547 
72.0123 66.9452 69.4326 64.547 72.0123 66.9452 77.463 62.2346 64.547 
62.2346 69.4326 62.2346 62.2346 57.8555 66.9452 62.2346 66.9452 60.0051 
64.547 60.0051 60.0051 64.547 57.8555 64.547 69.4326 64.547 69.4326 
66.9452 69.4326 64.547 64.547 62.2346 60.0051 55.7829 69.4326 66.9452 
72.0123 69.4326 64.547 64.547 62.2346 64.547 60.0051 60.0051 53.7845 
60.0051 53.7845 57.8555 55.7829 64.547 60.0051 62.2346 60.0051 66.9452 
64.547 55.7829 51.8578 57.8555 53.7845 64.547 60.0051 62.2346 57.8555 
57.8555 53.7845 55.7829 53.7845 53.7845 60.0051 55.7829 57.8555 55.7829 
55.7829 51.8578 60.0051 57.8555 57.8555 53.7845 72.0123 69.4326 57.8555 
55.7829 50 48.2088 66.9452 62.2346 60.0051 55.7829 62.2346 60.0051 
62.2346 60.0051 57.8555 53.7845 53.7845 51.8578 66.9452 64.547 55.7829 
51.8578 57.8555 53.7845 60.0051 57.8555 62.2346 60.0051 53.7845 51.8578 
53.7845 51.8578 57.8555 55.7829 53.7845 51.8578 51.8578 50 60.0051 
57.8555 51.8578 50 57.8555 55.7829 62.2346 57.8555 62.2346 53.7845 
50 53.7845 50 53.7845 51.8578 60.0051 55.7829 51.8578 48.2088 
53.7845 51.8578 57.8555 53.7845 51.8578 50 57.8555 51.8578 50 
51.8578 50 53.7845 50 50 46.4818 46.4818 43.2111 60.0051 
51.8578 48.2088 46.4818 43.2111 44.8166 40.1706 53.7845 51.8578 43.2111 
41.6631 53.7845 51.8578 48.2088 46.4818 55.7829 53.7845 43.2111 41.6631 
46.4818 43.2111 46.4818 44.8166 41.6631 38.7315 44.8166 43.2111 44.8166 
41.6631 43.2111 41.6631 41.6631 40.1706 40.1706 38.7315 44.8166 43.2111 
41.6631 40.1706 38.7315 37.344 89.6332 86.4222 89.6332 74.6879 83.3262 
77.463 86.4222 83.3262 74.6879 72.0123 69.4326 64.547 80.3411 74.6879 
77.463 69.4326 74.6879 74.6879 66.9452 80.3411 77.463 83.3262 80.3411 
66.9452 64.547 69.4326 62.2346 74.6879 72.0123 72.0123 69.4326 77.463 
74.6879 66.9452 64.547 69.4326 74.6879 69.4326 72.0123 64.547 69.4326 
66.9452 69.4326 66.9452 64.547 64.547 69.4326 64.547 62.2346 72.0123 
69.4326 74.6879 66.9452 64.547 62.2346 62.2346 60.0051 62.2346 60.0051 
62.2346 60.0051 64.547 62.2346 66.9452 60.0051 69.4326 64.547 62.2346 
60.0051 69.4326 66.9452 60.0051 66.9452 64.547 66.9452 64.547 62.2346 
60.0051 69.4326 62.2346 62.2346 60.0051 66.9452 64.547 66.9452 64.547 
57.8555 53.7845 64.547 66.9452 64.547 64.547 62.2346 66.9452 64.547 
64.547 62.2346 64.547 60.0051 60.0051 57.8555 62.2346 64.547 62.2346 
57.8555 62.2346 57.8555 62.2346 53.7845 51.8578 60.0051 57.8555 57.8555 
60.0051 57.8555 62.2346 55.7829 51.8578 60.0051 57.8555 57.8555 55.7829 
60.0051 55.7829 64.547 60.0051 55.7829 53.7845 57.8555 55.7829 66.9452 
64.547 55.7829 53.7845 53.7845 51.8578 64.547 62.2346 57.8555 55.7829 
55.7829 53.7845 64.547 62.2346 55.7829 53.7845 57.8555 55.7829 48.2088 
46.4818 55.7829 53.7845 60.0051 57.8555 60.0051 57.8555 57.8555 53.7845 
51.8578 50 60.0051 55.7829 64.547 62.2346 57.8555 55.7829 55.7829 
53.7845 50 48.2088 60.0051 57.8555 55.7829 53.7845 50 48.2088 
62.2346 60.0051 60.0051 57.8555 50 50 48.2088 50 48.2088 
50 48.2088 51.8578 50 50 48.2088 50 46.4818 55.7829 
51.8578 51.8578 50 44.8166 43.2111 57.8555 44.8166 43.2111 48.2088 
44.8166 50 48.2088 60.0051 57.8555 50 48.2088 46.4818 44.8166 
51.8578 50 51.8578 43.2111 41.6631 44.8166 43.2111 41.6631 40.1706 
41.6631 40.1706 46.4818 43.2111 40.1706 38.7315 40.1706 38.7315 40.1706 
37.344 43.2111 41.6631 41.6631 40.1706 44.8166 43.2111 44.8166 43.2111 
40.1706 38.7315 37.344 36.0062 89.6332 83.3262 77.463 74.6879 80.3411 
77.463 80.3411 74.6879 77.463 74.6879 77.463 72.0123 72.0123 69.4326 
72.0123 66.9452 69.4326 66.9452 77.463 69.4326 66.9452 74.6879 72.0123 
74.6879 72.0123 72.0123 69.4326 69.4326 64.547 66.9452 62.2346 74.6879 
72.0123 72.0123 69.4326 74.6879 72.0123 69.4326 69.4326 69.4326 66.9452 
74.6879 72.0123 66.9452 69.4326 66.9452 72.0123 74.6879 72.0123 66.9452 
64.547 66.9452 64.547 66.9452 64.547 66.9452 69.4326 64.547 66.9452 
64.547 66.9452 72.0123 69.4326 74.6879 72.0123 69.4326 66.9452 60.0051 
74.6879 72.0123 66.9452 62.2346 64.547 60.0051 66.9452 64.547 66.9452 
69.4326 72.0123 69.4326 60.0051 57.8555 66.9452 64.547 62.2346 57.8555 
62.2346 60.0051 64.547 62.2346 62.2346 60.0051 66.9452 64.547 66.9452 
64.547 66.9452 62.2346 60.0051 69.4326 62.2346 60.0051 66.9452 64.547 
66.9452 64.547 62.2346 60.0051 62.2346 60.0051 60.0051 57.8555 64.547 
62.2346 55.7829 53.7845 62.2346 60.0051 60.0051 57.8555 57.8555 57.8555 
55.7829 57.8555 55.7829 57.8555 55.7829 57.8555 55.7829 55.7829 53.7845 
53.7845 50 51.8578 50 62.2346 60.0051 53.7845 51.8578 60.0051 
57.8555 55.7829 53.7845 62.2346 60.0051 57.8555 55.7829 46.4818 44.8166 
55.7829 53.7845 51.8578 50 51.8578 50 55.7829 53.7845 55.7829 
53.7845 55.7829 53.7845 53.7845 50 51.8578 50 57.8555 55.7829 
57.8555 55.7829 53.7845 51.8578 53.7845 51.8578 55.7829 53.7845 51.8578 
50 57.8555 55.7829 51.8578 50 64.547 62.2346 57.8555 55.7829 
53.7845 51.8578 62.2346 60.0051 50 48.2088 51.8578 50 50 
48.2088 60.0051 57.8555 51.8578 50 53.7845 51.8578 48.2088 46.4818 
50 48.2088 41.6631 40.1706 50 48.2088 51.8578 50 48.2088 
46.4818 44.8166 43.2111 43.2111 41.6631 48.2088 46.4818 48.2088 46.4818 
53.7845 51.8578 57.8555 55.7829 55.7829 53.7845 57.8555 55.7829 40.1706 
38.7315 38.7315 37.344 44.8166 43.2111 43.2111 41.6631 50 46.4818 
48.2088 46.4818 38.7315 37.344 37.344 36.0062 92.9635 89.6332 92.9635 
86.4222 89.6332 83.3262 86.4222 83.3262 89.6332 86.4222 80.3411 74.6879 
77.463 74.6879 77.463 74.6879 77.463 74.6879 66.9452 64.547 74.6879 
72.0123 80.3411 77.463 69.4326 66.9452 77.463 74.6879 83.3262 80.3411 
66.9452 64.547 66.9452 64.547 77.463 74.6879 80.3411 77.463 64.547 
62.2346 64.547 60.0051 77.463 74.6879 72.0123 69.4326 62.2346 60.0051 
69.4326 66.9452 66.9452 62.2346 72.0123 69.4326 64.547 62.2346 64.547 
62.2346 66.9452 64.547 74.6879 72.0123 72.0123 69.4326 69.4326 66.9452 
66.9452 64.547 66.9452 64.547 66.9452 64.547 69.4326 66.9452 64.547 
57.8555 62.2346 57.8555 62.2346 60.0051 69.4326 66.9452 60.0051 57.8555 
60.0051 57.8555 72.0123 69.4326 66.9452 64.547 74.6879 69.4326 60.0051 
57.8555 60.0051 57.8555 72.0123 66.9452 69.4326 66.9452 62.2346 60.0051 
69.4326 66.9452 62.2346 60.0051 64.547 62.2346 60.0051 55.7829 55.7829 
53.7845 57.8555 55.7829 62.2346 60.0051 60.0051 57.8555 64.547 62.2346 
64.547 62.2346 57.8555 55.7829 55.7829 53.7845 66.9452 64.547 57.8555 
55.7829 62.2346 60.0051 57.8555 55.7829 55.7829 51.8578 53.7845 51.8578 
62.2346 60.0051 57.8555 55.7829 57.8555 55.7829 57.8555 55.7829 55.7829 
53.7845 53.7845 51.8578 
