# vtk DataFile Version 4.1
vtk output
ASCII
DATASET POLYDATA
POINTS 1300 float
16125 47875 54078.1 15325.8 46314.9 52799.4 14982.9 45645.6 52250.8 
18182.2 44231.3 48153.8 12700.4 42826.6 45300.7 19088.2 43943.5 47608.7 
22703.2 41611.5 46786.4 12372.8 42252.8 43912.1 11837.5 41315.7 41643.9 
9424.35 38705.4 43724.8 23070.3 39983.2 41260.6 8430.53 36969.2 43906.8 
27564.3 37342.5 44277 7827.56 34981.7 44441 6747.12 36212.6 37454.9 
14967.4 41250.6 37505.4 6366.39 32526.5 42249.6 28941.2 35956.7 41212 
22024.7 40287.8 36084.5 28006.8 36867.8 38832 6634.3 36473.2 36999.8 
5437.23 29193.9 41780.5 5200.76 33645.4 34020.6 4585.21 31118.8 32070.3 
30198.4 32817.6 43170.9 7889.54 37813.5 36141.9 30814.2 31627.3 43410.4 
31247.2 30887.3 39868.9 22336.2 41149.9 29846.2 4372.15 29694.8 30919.8 
14779.1 41229.7 27599.1 14062.5 41215.2 22882.8 4328.63 31179.6 28390.6 
22801.1 41522.2 26807.7 4870.25 33499.9 33442.9 4403.09 26744.8 27899 
31670.3 29965.4 39366.9 31440.8 30874.5 37273.5 31467.6 30504.9 35139.7 
27696.2 38662.5 33814.2 29577.7 35500 27523.4 22475.7 41261.6 28934.7 
23929.4 41031.5 28398.4 23000.5 41681.9 25504 5954.81 21062.5 26750 
20077.7 42027.4 24395.3 24063.8 40027.4 22617.7 7555.31 23125 19789.1 
18482.4 42081.4 21380.8 5317.09 22944.7 27086.7 5554.69 19980.7 30359.4 
29523.1 24354.3 44026.4 5996.99 24767.4 22919 5767.13 26218.8 20304.7 
29073.7 35740.3 29149.8 29606.5 31117.2 27007.8 30280.6 24121.6 38338.5 
5763.51 21627.1 26851 7359.38 20266.4 23914.1 29751.7 22896.1 37910.2 
25021 38386.6 21232.9 16896.6 41716.6 19491.2 16125 41477.1 15148.4 
23390.2 39704 19967.9 5219.12 30397.6 20423.5 6070.31 30297.3 16695.3 
6955.44 37935.4 28927.4 29873.6 26574.5 30283.6 5665.03 20246.7 29764.5 
7460.85 23604.6 20128.8 8906.25 39681.7 26492.2 6625.23 20892.3 25265.1 
25298.7 37211.2 20645 7383.71 20416.5 24098.2 9368.25 19773.4 21851.6 
28666.4 20998.9 36466.4 26953.1 18158.5 35515.6 4400.62 30875.1 26207.4 
5814.98 30327.4 17813.8 7617.19 26686.9 16179.7 13895 41075 23867.5 
5993.69 30306.4 17030.9 6782.91 33179.7 14890.6 25676.4 34776.1 19463.3 
25266 31375 17984.4 6047.31 30300.1 16796 7359.38 29570.3 13994.5 
27467.1 19010.6 35800.9 6370.41 18500.6 30420.9 8511.28 15648.4 29328.1 
28825.9 21731.9 33925.3 26314.8 18742.2 31906.2 6915.63 16397.8 32134.3 
8448.38 13328.1 34226.6 25664.1 14828.6 45312.5 9254.3 23886.9 16649.4 
10401.6 24929.7 13343.8 28825.9 24714.6 29269.8 22859.1 32921.9 14117.2 
6908.31 32732.9 14998 8132.81 34867.8 12828.1 6841.38 37882.2 26554.5 
25187.8 32221.1 18094.9 15916.2 41310.2 18971.4 7601.82 38643 24118.2 
6277.59 36789.1 21335.9 7215.93 29839.5 14262.7 8865 30085.9 10507.8 
7743.31 14740.2 33264.1 6843.75 14461.5 36289.1 26953.1 24671.9 24637 
24117.2 14827.6 39640.6 26766.4 19224.6 32631.8 26309.6 18807.7 32082.7 
8482.3 13578.5 34142.4 10453.1 11586.3 36031.2 8090.94 34530.2 13269.6 
10195.3 36573.5 11796.9 25813.6 15478.7 44919 23085.9 12251.5 43765.6 
25111.4 17999.4 30728.5 23859.4 17968.8 28090.6 23975.8 30970.9 15972.2 
22312.5 29312.5 12997.3 6780.85 37493.6 22393.2 7875 38078.1 19438.4 
27126.2 24736.1 25083.7 6424.65 36862.2 21381.1 6070.31 35550.5 19015.6 
7104.24 14341.9 35869.4 6969.56 13070.3 39125 9861.91 12184 35464.6 
9537.38 11523.4 38609.4 6274.29 35933.7 19322.4 6843.75 35757.8 16644.8 
23085.9 26734.4 15871.3 23915.9 17868.7 28543 21848.4 17195.3 26234.4 
23062.3 12533.4 44042.4 26629.6 25889.6 22993.1 25148.4 25860.9 20046.9 
23152.8 28045.5 15540.4 21443.2 25703.1 13343.8 22525 29796.4 13343.6 
20622.3 29570.3 9734.38 6672.87 35810.6 17448.1 9562.64 11279.8 38289.9 
9164.06 9709.47 41960.9 27354.8 24404.7 25990 22939.5 26993 15745.7 
21796.9 23805.6 16179.7 21497.5 29674.3 11394.7 19752.9 26218.8 10250 
22468.7 17397.3 26927 22570.3 18989.7 23914.1 21882.3 17276 26318.2 
19476.6 16920 23914.1 21303.5 15071.2 30186.6 19248.7 13328.1 30875 
28757.8 30501.5 24687.5 22682.2 19060.5 24274.7 23085.9 21062.5 21758.8 
19873.5 17157 24130 17671.9 17926.5 20820.3 19372.6 13690.5 30653 
16171.4 12554.7 30617.2 28582.8 29492 24853.3 18156.2 13258.9 30639.4 
16898.4 11779.2 33195.3 22603.9 19010.9 24022.3 20765.6 19133 21593.8 
17671.9 14160.3 27781.2 22139.7 24761.8 16049.5 22570.3 22712.5 19015.6 
17483 12293.2 32661.7 17929.7 11751.3 35773.4 22237.5 22978.9 18287 
21023.4 20663.4 19531.2 21710.4 24021.8 16227.6 19734.4 21320.3 17070.7 
19861.4 21663 17201.1 17929.7 19456.8 18500 16729.6 44504.6 51116.6 
15369.5 44821.7 50603.5 18198.3 43545.5 46450.6 15180.7 43246.2 43930.7 
11676.9 41034.5 40963.5 19324.3 41231.1 41430.6 23357.2 39552.5 40664.2 
24467.8 38992.6 40828.8 7389.18 34245.2 43783.6 7260.27 32714.7 45343.3 
15926.2 41239.5 34545.1 9853.76 39579 35120.1 24944.2 38752.4 40899.5 
20500 40568.5 35151.8 29354.2 35541 40292.5 29130.2 36192.1 37549.7 
5496.63 31278.3 40347.4 4723.5 32406.2 37835.9 9912.33 39873.9 34855.6 
15127.7 41237.3 32820.2 4931.91 31993.4 38261.4 4355.96 31063.9 27561 
31410.9 28708.8 36813.1 7705.98 38661 27840.3 13985.5 41150.7 23335.8 
8834.89 39546.4 26784 4288.73 29183 26505.3 4415.16 27765.6 23914.1 
5051.34 25853.4 25352 5727.94 23382.8 24945.3 5328.33 22133.2 28231.8 
4726.59 22351.6 30101.6 29301.4 36036.5 30256.6 4532.2 27849.6 24015.8 
29369.3 35456.6 27709.9 29061 34726.6 25718.8 26859.4 39975.7 29062.9 
5665.34 23887 24802.5 6585.94 22219.6 23140.6 29078.5 23444.1 45340.3 
21562.8 40656.2 17726.6 30724.8 26346.7 33562.1 30118 25445.3 31906.2 
6636.47 22440.1 23178.5 7555.31 21578.1 21851.6 5938.62 21179.1 26881.8 
6645.75 19515.6 27265.6 29153.5 34945.6 26316.1 28043.2 36273.4 24429.7 
27524.4 19773.4 48664.1 23166.3 39879.8 19617 7538.5 21781.8 21915.3 
8545.31 21320.3 20562.5 14641.8 40618.6 17571.3 14320.3 40505.7 15921.9 
6733.92 28143.6 17171.1 6843.75 25910.4 18242.2 14005.3 41053.1 26104.8 
29703.7 32594.8 28126.4 30562.5 31111 28554.7 8291.83 23444.6 18889.2 
9937.5 21917.4 17984.4 26463.4 35762.7 21378.2 26953.1 33704.6 20820.3 
6559.85 19675.7 27328.7 27826.9 19607.1 36000.5 14479.3 40560.9 16078.4 
14835.9 40682 13859.4 22009.1 40888.3 19570.7 21281.2 42260.9 21851.6 
6234.69 31721.3 16376.9 6070.31 33279.7 16437.5 9565.32 22165.3 18336.9 
10453.1 20742.8 18757.8 6510.45 29915 15917.4 7101.56 28438 15406.2 
12773.6 40637.9 22022.3 13289.1 40683.1 20046.9 18445.3 42260.9 19273.4 
5266.97 35757.8 24945.3 7781.16 16462.2 29963.3 8648.44 14330.5 31132.8 
11935.6 40272 20952.3 11484.4 39670.4 18757.8 7452.4 27167.3 16267.5 
8648.44 26476.6 14328.6 27193.3 35004.1 22055.3 28014.3 33179.7 22882.8 
7316.37 29651.1 14074.9 7815.19 28281.2 14117.2 9937.5 39819.9 22109.4 
27726.6 21702.9 29843.8 7262.65 14696.1 34735.7 6272.44 15648.4 35773.4 
7151.79 14448.2 35529.2 7875 13162.1 36031.2 7482.2 38518.3 25014.5 
8437.86 15772.9 29345.9 10453.1 13843.8 29278.6 9123.74 12986.5 34475.1 
10403.6 12039.1 33968.8 27796.7 21594.2 30263.7 26862.4 21578.1 28039.1 
22728.3 32995.1 14154.9 22634.2 31632.8 13343.8 25708.9 15023.6 45194.4 
25921.9 15053.4 47117.2 12000 38446.3 14632.8 7240.37 13748.4 36987.6 
8335.97 12554.7 37578.1 26862.4 21344.1 28379.1 25932.2 20804.7 27007.8 
10195.6 36231.5 12005.9 12000 37103.6 11281.2 26760.3 28023.4 21593.8 
22927 34469.1 15268.6 23888.2 32664.1 15664.1 22662.5 32041.5 13587.1 
21843.3 31890.6 12054.7 22376.1 27332.8 14253.8 6858.08 13287.3 38874.2 
6262.12 13070.3 40671.9 22758.6 16310.6 29816.8 21539.1 15860.9 28296.9 
25431.7 26170.7 20393 24890.6 26942.7 18757.8 21512.7 25882.9 13385.2 
21281.2 24414.1 14582.3 25053 26711.1 19248.4 23940.8 25960.9 18242.2 
24939.3 26873.2 18905 24565.8 28281.2 17468.8 20512.9 28298.1 10438.5 
19476.6 27721.3 8960.94 21593.8 15951 28471.7 19992.2 15540.2 26750 
20645.6 17069.1 25214.1 19218.8 16164.1 25152.6 22789.3 18767.4 24976.4 
23859.4 20174.6 24171.9 23661.3 20103.7 24140.6 24375 21529.7 23140.6 
24161.7 21393.3 23179.7 24632.8 23079.6 21851.6 20757.3 19124.1 21648.3 
19476.6 19195.9 20046.9 17073.8 11933.4 33035.2 15351.6 11722.5 32937.5 
26510.7 31375 20304.7 25233.4 25953.8 20150.7 24117.2 23898.4 20001.5 
18550.7 14458 28092.2 17671.9 14875 26174.6 19290 20659.9 18020.9 
19476.6 19971.4 19015.6 20714.4 22898.9 16453.3 19218.8 21897.8 15406.2 
14667.7 42323.8 41680.9 14835.9 41740.1 40156.2 6328.12 36866.4 35257.8 
6468.37 30601.6 44796.9 6351.23 36617.5 35639.2 29911.3 34643.7 40258.3 
26064.1 38088.5 39423.6 26437.5 37938.9 37835.9 5418.66 26939.9 43289.3 
5250.47 25960.9 43250 5539.63 25347.9 44518.4 30673.8 33359.4 40076.1 
31335.9 32148.4 39687 31667 33179.7 35773.4 29761.2 35941.7 36388.7 
29273.4 37116 34742.2 18645.8 41378.2 29384.2 24231.7 39582 35105.6 
25921.9 39302.2 34484.4 29451.1 36825.4 34970.2 11226.6 40714 29843.8 
17929.7 41745.2 26750 15351.6 41230.7 24945.3 31617.5 32406.2 32164.1 
31511.9 32170 32149.4 31134.8 33437.5 31132.8 5974.1 36098.7 34469.9 
31348.1 28103.7 35904 28955.8 37439 31114.9 6070.31 36582.8 30359.4 
15558.8 41429.7 21593.8 5099.7 22216.2 28942.3 4705.97 23898.4 29585.9 
4324.82 28899.2 25110.1 31494.3 30911.9 33161.4 23343.8 41337.9 21593.8 
5732.79 23419.1 24920 5954.81 22093.8 25203.1 28993.1 22405.8 43873.4 
28551.6 20546.9 44281.2 28664.6 22285.9 46125.6 28400 21062.5 46085.9 
4523.44 32972.4 27523.4 29423.7 34004.3 27926.9 29592.1 33179.7 26750 
28600.8 20860.4 44317.3 28048.3 20031.2 45312.5 30092.2 27507.8 29328.1 
28659 35267.9 25285 28357.7 34984.4 24171.9 28342.7 21734.7 47128.2 
27984.4 20178.7 47117.2 20298.5 41687.5 17984.4 30118.4 25445.1 32087.1 
29599.3 24671.9 31132.8 29073.4 25960.9 48148.4 28559.8 37304.7 26750 
29191.3 25738.7 47716 29387.9 27250 47890.6 22779.9 38708.4 17872.1 
21848.4 38851.6 16179.7 27768 33727 22634.6 28528.9 33695.3 23914.1 
6088.36 25336.2 21206 6585.94 25140.1 19789.1 6884.69 37902.4 27456.2 
5812.5 36868.5 26750 27984.4 19178.4 38093.8 7845.71 19204.5 25009.5 
8390.62 18675.2 24429.7 29710 31563.9 27597.1 30046.9 29769.3 27781.2 
6961.73 26157.6 17985.1 7359.38 24879.2 18242.2 8071.97 16937.5 27523.4 
[...]
CELL_DATA 1299
SCALARS radius float
LOOKUP_TABLE default
100 96.4176 96.4176 92.9635 92.9635 89.6332 89.6332 83.3262 86.4222 
86.4222 83.3262 86.4222 77.463 83.3262 80.3411 72.0123 83.3262 83.3262 
80.3411 80.3411 69.4326 80.3411 77.463 83.3262 77.463 80.3411 80.3411 
80.3411 74.6879 72.0123 62.2346 74.6879 74.6879 77.463 72.0123 77.463 
77.463 74.6879 77.463 64.547 77.463 74.6879 72.0123 62.2346 72.0123 
69.4326 55.7829 66.9452 69.4326 60.0051 74.6879 64.547 57.8555 69.4326 
55.7829 74.6879 66.9452 60.0051 72.0123 66.9452 64.547 60.0051 64.547 
64.547 53.7845 74.6879 72.0123 64.547 60.0051 62.2346 64.547 64.547 
62.2346 55.7829 66.9452 57.8555 69.4326 60.0051 53.7845 66.9452 57.8555 
50 62.2346 55.7829 55.7829 48.2088 60.0051 62.2346 55.7829 72.0123 
62.2346 60.0051 51.8578 53.7845 55.7829 51.8578 69.4326 50 51.8578 
46.4818 69.4326 60.0051 62.2346 64.547 53.7845 51.8578 46.4818 57.8555 
44.8166 60.0051 53.7845 69.4326 66.9452 53.7845 46.4818 50 41.6631 
60.0051 55.7829 64.547 57.8555 57.8555 51.8578 62.2346 55.7829 64.547 
60.0051 55.7829 48.2088 41.6631 50 43.2111 57.8555 51.8578 51.8578 
60.0051 53.7845 57.8555 60.0051 51.8578 55.7829 44.8166 53.7845 50 
53.7845 46.4818 41.6631 66.9452 53.7845 48.2088 51.8578 48.2088 57.8555 
48.2088 55.7829 48.2088 60.0051 53.7845 57.8555 51.8578 46.4818 51.8578 
46.4818 57.8555 51.8578 60.0051 55.7829 48.2088 50 43.2111 51.8578 
51.8578 48.2088 53.7845 50 50 43.2111 50 44.8166 46.4818 
40.1706 89.6332 92.9635 92.9635 86.4222 80.3411 86.4222 83.3262 80.3411 
74.6879 69.4326 77.463 74.6879 77.463 80.3411 80.3411 77.463 69.4326 
57.8555 72.0123 74.6879 64.547 72.0123 74.6879 69.4326 64.547 66.9452 
69.4326 62.2346 69.4326 55.7829 66.9452 60.0051 72.0123 64.547 66.9452 
62.2346 69.4326 62.2346 53.7845 72.0123 57.8555 69.4326 62.2346 55.7829 
50 64.547 55.7829 64.547 60.0051 62.2346 62.2346 51.8578 48.2088 
60.0051 53.7845 57.8555 53.7845 69.4326 62.2346 60.0051 57.8555 50 
60.0051 57.8555 60.0051 64.547 57.8555 55.7829 60.0051 51.8578 55.7829 
51.8578 51.8578 50 53.7845 51.8578 64.547 60.0051 60.0051 66.9452 
60.0051 55.7829 62.2346 57.8555 55.7829 48.2088 57.8555 51.8578 50 
44.8166 55.7829 64.547 51.8578 50 50 46.4818 66.9452 57.8555 
51.8578 51.8578 46.4818 69.4326 64.547 51.8578 46.4818 57.8555 53.7845 
53.7845 46.4818 44.8166 66.9452 60.0051 43.2111 40.1706 55.7829 55.7829 
50 50 46.4818 50 43.2111 40.1706 62.2346 53.7845 55.7829 
50 48.2088 44.8166 53.7845 50 51.8578 46.4818 50 46.4818 
55.7829 50 53.7845 50 53.7845 50 51.8578 48.2088 50 
46.4818 44.8166 43.2111 51.8578 46.4818 50 53.7845 50 55.7829 
50 44.8166 43.2111 48.2088 44.8166 77.463 72.0123 74.6879 62.2346 
77.463 77.463 72.0123 66.9452 64.547 62.2346 62.2346 72.0123 66.9452 
69.4326 72.0123 66.9452 77.463 72.0123 66.9452 69.4326 64.547 69.4326 
66.9452 62.2346 66.9452 64.547 72.0123 72.0123 74.6879 72.0123 60.0051 
64.547 62.2346 66.9452 69.4326 64.547 60.0051 55.7829 72.0123 66.9452 
69.4326 66.9452 69.4326 64.547 60.0051 69.4326 64.547 64.547 62.2346 
60.0051 66.9452 64.547 57.8555 66.9452 64.547 60.0051 62.2346 62.2346 
60.0051 62.2346 57.8555 55.7829 53.7845 62.2346 55.7829 72.0123 69.4326 
64.547 62.2346 60.0051 60.0051 57.8555 55.7829 51.8578 53.7845 60.0051 
60.0051 55.7829 53.7845 48.2088 57.8555 53.7845 57.8555 53.7845 64.547 
62.2346 55.7829 53.7845 55.7829 51.8578 62.2346 57.8555 53.7845 50 
57.8555 55.7829 53.7845 51.8578 57.8555 55.7829 53.7845 51.8578 57.8555 
55.7829 48.2088 46.4818 46.4818 43.2111 48.2088 44.8166 55.7829 53.7845 
55.7829 53.7845 62.2346 62.2346 60.0051 62.2346 60.0051 60.0051 55.7829 
44.8166 43.2111 48.2088 46.4818 50 48.2088 41.6631 40.1706 55.7829 
53.7845 48.2088 46.4818 62.2346 60.0051 44.8166 40.1706 57.8555 51.8578 
53.7845 51.8578 41.6631 40.1706 51.8578 50 44.8166 43.2111 46.4818 
44.8166 48.2088 53.7845 51.8578 64.547 62.2346 51.8578 50 50 
48.2088 53.7845 51.8578 48.2088 46.4818 46.4818 44.8166 51.8578 48.2088 
48.2088 46.4818 41.6631 40.1706 89.6332 86.4222 83.3262 80.3411 80.3411 
77.463 83.3262 77.463 89.6332 83.3262 74.6879 77.463 72.0123 74.6879 
74.6879 69.4326 77.463 69.4326 69.4326 77.463 74.6879 72.0123 80.3411 
74.6879 69.4326 80.3411 83.3262 72.0123 66.9452 64.547 72.0123 64.547 
57.8555 62.2346 60.0051 69.4326 74.6879 72.0123 66.9452 64.547 77.463 
57.8555 69.4326 74.6879 69.4326 69.4326 66.9452 72.0123 66.9452 74.6879 
72.0123 72.0123 62.2346 55.7829 74.6879 72.0123 69.4326 64.547 69.4326 
66.9452 60.0051 64.547 69.4326 72.0123 57.8555 66.9452 64.547 64.547 
72.0123 69.4326 57.8555 69.4326 66.9452 72.0123 66.9452 66.9452 64.547 
69.4326 62.2346 60.0051 57.8555 55.7829 62.2346 72.0123 69.4326 66.9452 
64.547 66.9452 64.547 62.2346 66.9452 66.9452 64.547 60.0051 64.547 
62.2346 64.547 60.0051 57.8555 55.7829 62.2346 60.0051 66.9452 62.2346 
62.2346 60.0051 64.547 62.2346 69.4326 66.9452 72.0123 69.4326 55.7829 
57.8555 53.7845 62.2346 60.0051 72.0123 69.4326 62.2346 57.8555 62.2346 
60.0051 53.7845 51.8578 53.7845 51.8578 55.7829 53.7845 57.8555 55.7829 
62.2346 50 46.4818 60.0051 57.8555 57.8555 55.7829 51.8578 50 
62.2346 53.7845 51.8578 51.8578 62.2346 60.0051 66.9452 64.547 57.8555 
64.547 60.0051 60.0051 57.8555 60.0051 57.8555 51.8578 50 51.8578 
50 53.7845 51.8578 64.547 62.2346 53.7845 51.8578 55.7829 53.7845 
62.2346 57.8555 62.2346 55.7829 53.7845 60.0051 46.4818 44.8166 48.2088 
46.4818 55.7829 53.7845 62.2346 60.0051 51.8578 48.2088 55.7829 51.8578 
55.7829 51.8578 57.8555 53.7845 55.7829 51.8578 57.8555 55.7829 48.2088 
46.4818 51.8578 43.2111 41.6631 44.8166 55.7829 51.8578 55.7829 53.7845 
51.8578 50 51.8578 50 48.2088 46.4818 50 48.2088 57.8555 
55.7829 50 48.2088 55.7829 53.7845 53.7845 51.8578 51.8578 50 
51.8578 50 48.2088 46.4818 83.3262 86.4222 80.3411 77.463 86.4222 
83.3262 80.3411 89.6332 80.3411 77.463 72.0123 72.0123 69.4326 74.6879 
72.0123 74.6879 69.4326 72.0123 69.4326 77.463 74.6879 69.4326 80.3411 
74.6879 74.6879 69.4326 74.6879 83.3262 80.3411 77.463 74.6879 66.9452 
74.6879 72.0123 64.547 60.0051 57.8555 77.463 66.9452 74.6879 72.0123 
77.463 74.6879 60.0051 57.8555 66.9452 69.4326 72.0123 69.4326 69.4326 
64.547 60.0051 57.8555 60.0051 62.2346 60.0051 66.9452 74.6879 77.463 
72.0123 60.0051 57.8555 77.463 74.6879 69.4326 66.9452 72.0123 69.4326 
64.547 62.2346 69.4326 66.9452 69.4326 66.9452 64.547 69.4326 64.547 
69.4326 66.9452 66.9452 64.547 66.9452 64.547 64.547 62.2346 69.4326 
69.4326 66.9452 69.4326 66.9452 69.4326 64.547 66.9452 64.547 62.2346 
60.0051 60.0051 57.8555 57.8555 55.7829 62.2346 57.8555 64.547 69.4326 
64.547 66.9452 64.547 57.8555 55.7829 62.2346 60.0051 60.0051 57.8555 
62.2346 62.2346 57.8555 53.7845 64.547 62.2346 55.7829 53.7845 62.2346 
60.0051 66.9452 62.2346 53.7845 50 60.0051 69.4326 66.9452 64.547 
62.2346 66.9452 62.2346 62.2346 57.8555 57.8555 55.7829 64.547 62.2346 
48.2088 46.4818 69.4326 64.547 66.9452 62.2346 66.9452 64.547 60.0051 
55.7829 64.547 62.2346 64.547 60.0051 60.0051 57.8555 55.7829 53.7845 
62.2346 60.0051 62.2346 60.0051 57.8555 55.7829 50 48.2088 55.7829 
50 53.7845 51.8578 57.8555 55.7829 53.7845 51.8578 60.0051 57.8555 
51.8578 50 46.4818 44.8166 64.547 62.2346 50 48.2088 48.2088 
46.4818 51.8578 50 53.7845 51.8578 41.6631 40.1706 57.8555 55.7829 
53.7845 51.8578 53.7845 50 53.7845 50 48.2088 46.4818 46.4818 
44.8166 51.8578 50 48.2088 46.4818 57.8555 55.7829 50 48.2088 
48.2088 46.4818 53.7845 51.8578 46.4818 44.8166 50 48.2088 51.8578 
50 44.8166 43.2111 43.2111 41.6631 86.4222 80.3411 86.4222 83.3262 
83.3262 80.3411 80.3411 74.6879 83.3262 80.3411 80.3411 77.463 86.4222 
80.3411 86.4222 83.3262 83.3262 77.463 72.0123 64.547 80.3411 69.4326 
77.463 74.6879 74.6879 72.0123 74.6879 72.0123 74.6879 72.0123 80.3411 
72.0123 77.463 74.6879 74.6879 72.0123 77.463 72.0123 72.0123 69.4326 
74.6879 72.0123 57.8555 55.7829 77.463 72.0123 66.9452 60.0051 74.6879 
69.4326 69.4326 66.9452 72.0123 69.4326 64.547 62.2346 72.0123 69.4326 
69.4326 66.9452 69.4326 64.547 74.6879 72.0123 66.9452 64.547 72.0123 
69.4326 64.547 62.2346 66.9452 62.2346 69.4326 64.547 74.6879 69.4326 
64.547 62.2346 69.4326 64.547 60.0051 55.7829 66.9452 62.2346 72.0123 
69.4326 77.463 72.0123 57.8555 51.8578 55.7829 53.7845 62.2346 60.0051 
74.6879 72.0123 53.7845 51.8578 74.6879 72.0123 66.9452 64.547 66.9452 
62.2346 60.0051 57.8555 64.547 62.2346 66.9452 64.547 69.4326 66.9452 
72.0123 69.4326 69.4326 66.9452 74.6879 69.4326 60.0051 55.7829 72.0123 
66.9452 66.9452 64.547 57.8555 55.7829 72.0123 69.4326 69.4326 66.9452 
62.2346 60.0051 66.9452 64.547 72.0123 66.9452 60.0051 57.8555 74.6879 
72.0123 62.2346 60.0051 69.4326 66.9452 66.9452 62.2346 66.9452 64.547 
64.547 60.0051 69.4326 66.9452 66.9452 64.547 62.2346 60.0051 64.547 
62.2346 72.0123 69.4326 60.0051 55.7829 64.547 62.2346 62.2346 60.0051 
66.9452 64.547 57.8555 55.7829 60.0051 57.8555 64.547 62.2346 57.8555 
55.7829 55.7829 53.7845 66.9452 64.547 64.547 62.2346 60.0051 57.8555 
51.8578 50 62.2346 60.0051 50 48.2088 57.8555 55.7829 50 
48.2088 57.8555 55.7829 53.7845 51.8578 55.7829 53.7845 53.7845 51.8578 
48.2088 46.4818 66.9452 64.547 50 48.2088 55.7829 53.7845 53.7845 
51.8578 44.8166 43.2111 46.4818 44.8166 66.9452 64.547 64.547 62.2346 
48.2088 46.4818 48.2088 46.4818 44.8166 43.2111 64.547 62.2346 53.7845 
51.8578 53.7845 50 57.8555 55.7829 55.7829 53.7845 51.8578 50 
51.8578 50 60.0051 57.8555 46.4818 44.8166 43.2111 41.6631 50 
48.2088 53.7845 51.8578 62.2346 60.0051 55.7829 53.7845 55.7829 53.7845 
48.2088 46.4818 50 48.2088 48.2088 46.4818 53.7845 51.8578 46.4818 
44.8166 83.3262 80.3411 83.3262 80.3411 89.6332 86.4222 77.463 74.6879 
77.463 74.6879 89.6332 86.4222 83.3262 80.3411 69.4326 66.9452 66.9452 
64.547 72.0123 69.4326 80.3411 74.6879 77.463 74.6879 72.0123 69.4326 
72.0123 66.9452 72.0123 69.4326 69.4326 66.9452 74.6879 72.0123 72.0123 
69.4326 74.6879 72.0123 74.6879 72.0123 77.463 72.0123 74.6879 72.0123 
62.2346 57.8555 69.4326 66.9452 60.0051 57.8555 69.4326 66.9452 74.6879 
72.0123 66.9452 64.547 74.6879 69.4326 74.6879 72.0123 72.0123 69.4326 
72.0123 69.4326 66.9452 64.547 64.547 62.2346 72.0123 69.4326 74.6879 
72.0123 64.547 62.2346 
