# vtk DataFile Version 4.1
vtk output
ASCII
DATASET POLYDATA
POINTS 1300 float
16125 47875 54078.1 15403.1 46111.5 52453.9 15186.6 45582.4 51966.6 
18196.3 44161.6 47872.3 19092.5 43914.6 47343.8 12081.3 42501.9 46585.9 
22790.2 41856.1 46824.2 17720.6 42409.6 43239.9 9358.76 39472.8 43168.4 
18047.4 42044.2 42525.1 8861.49 38894.3 43045.1 23461.8 40711.2 44468.5 
16098.2 41643.3 39580.4 26817.6 37799.9 44352.4 7516.02 35143.9 43502.1 
7174.16 36912.7 38469.8 7205 33170.2 44858.2 20096.2 40789.4 37743.3 
15111.5 41401 38640.8 5387.94 34221.2 34780 20384.3 40377.1 37266.8 
16755.8 41362.7 34392.9 5928.1 31964.7 41236.8 28636 36130.8 40515.7 
17397.1 41270.3 30667.1 30210.2 32751.9 43065.8 30816.5 34134.1 37373.5 
24421.9 39263.4 36083.8 7123.32 37053.5 37665.2 6060.72 27767 44766.4 
4565.51 32589.8 31866 4207.87 26734.4 31132.8 30848.1 31607.6 43194.7 
4392.06 31886.3 30748.8 17734.2 41319.8 29287.7 18592.9 41617.6 26789.4 
15351.6 41246.1 23140.6 4343.8 29599.7 28317.2 7829.93 38172.1 34536.3 
4576.03 26704.3 27505.4 4294.7 29554.2 27166.7 31221.3 31066.2 40668.2 
30161.2 27624.8 44560.2 29087.8 22609.4 44023.4 26368.1 38864.7 34172.9 
24112.1 40743.9 23717.3 31499 30129.7 34347.4 16961.9 41475.9 24096 
16898.4 41746.3 18757.8 29134.5 36953.6 30538.8 30102.6 33695.3 28039.1 
31426.3 29043.5 33981.4 4675.65 25462.1 27157.1 26787.4 39637.7 30919.8 
27984.4 38874.2 27007.8 6522 21062.5 24945.3 24356.4 39240.6 20733.5 
5415.57 25576.4 24002 7838.9 22867.2 19789.1 24283.1 39691.5 21628.6 
21329.7 40914.1 18242.2 30758.5 26529.8 39924.8 4535.09 29762.4 22920.9 
27601.5 38632.9 27975.8 28242.2 35242.2 24142 29409.8 24114 44184.5 
29078.2 22787.1 43912.2 28029.8 19257.8 42734.4 5931.3 22176.4 26007.7 
6843.75 18951.5 27265.6 29653.6 33871.7 28550.2 29605.5 30601.6 27007.8 
4905.2 29797.9 21229.7 24736.9 38968.3 20433.3 26462.2 34984.4 20304.7 
30852 26705.2 33070.2 6448.06 37013.4 30945.7 23640.8 38305.7 18267.2 
5160.75 29959.5 20011.5 12286.3 40781.3 25389.8 29500.5 22739.6 37295.7 
16626.8 41527.9 19657.7 14835.9 40707.8 14890.6 30107.9 26331.5 30992.1 
7442.29 23707 20401.5 9679.69 23640.6 16038.4 11544.5 40719.1 25078.7 
28344.3 20316.6 43087.7 27027.4 17710.9 45828.1 6570.06 19919 26888.2 
25763.7 35537.3 19984.9 9164.06 19464.1 22367.2 29123 21964.5 36607 
27468.8 18617.4 38093.8 5747.33 27976.9 19772 23520.4 41073 25353.4 
9198.3 19296.7 22829.5 11085.3 20031.2 19273.4 22503.3 34984.4 14375 
5751.14 30507.1 17454 6843.75 30078.7 14632.8 12322.5 40376.6 21807.2 
28263.4 20482.5 35024.9 26695.3 19000 32078.5 6428.57 30241.5 15704.9 
7288.22 33179.7 13601.6 6396.5 18504.2 30656.2 8511.28 15648.4 29328.1 
27422.4 18492.6 45006 7097.95 16272.3 32235.4 8390.62 13328.1 34278.1 
28817.1 24438 29572.8 26497.3 22609.4 25976.6 8906.25 26476.6 13572.7 
25666 33249.5 19030 24425.5 30601.6 16695.3 9503.65 23838.5 16331.1 
10968.8 24290.3 13343.8 27489.6 19105.5 37656.2 4902.11 34303.9 24330.4 
6884.69 30048 14746.5 7589.14 15153.5 33011.6 6585.94 14875 36190.1 
8514.68 39040.2 22823 7498.18 32961.3 13913.7 9020.72 35757.8 12312.5 
8306.06 16044.2 29897.5 10195.3 13798.4 29843.8 26980.4 19240.4 33393.5 
23915.1 16164.1 32421.9 25860.2 18208.2 32706.4 26780.8 19072.1 32473 
26813.9 20546.9 29328.1 27193.3 23158 27055.4 26455 25187.5 23140.6 
25504 15367.7 44513.2 23343.8 12131.9 44281.2 8497.46 13678.2 34008.1 
11157.5 11265.6 35515.6 24390.5 30943.6 16792.7 22882.8 28796.9 14375 
24375 14552.2 40929.7 22596.9 35256.2 14847.5 8422.7 13433.2 34197.1 
8648.44 12227.8 38093.8 7457.96 37832 21260.5 22310.3 32493.2 13567.1 
21858.8 29828.1 12054.7 26690.1 25259.9 23815.9 26450.9 27765.6 21078.1 
23457.6 12590.7 44499.9 21281.2 10072.5 44796.9 23335.1 29440.9 15100.3 
22828.1 26218.8 15558.9 26706.1 22774 26300.2 24926.7 20289.1 25976.6 
8244.6 12723.9 37090.9 6328.12 12757.8 40671.9 22897.8 28800.5 14528.3 
21342.1 26476.6 12828.1 21827.6 30475.5 12165.2 20765.6 29312.5 9927.22 
8504.37 12270.3 37987.3 24454.9 16947.5 32147.2 21796.9 15481.4 29585.9 
21281.2 17195.3 25332 26841 24629.3 24787.7 28055.5 28023.4 24429.7 
23142.5 28216.5 15274.6 24434.8 26476.6 18500 22721.6 26629.2 15358.9 
21281.2 24156.2 14841.1 21545.4 27104 12926.3 19794.2 26476.6 10250 
8252.13 37853.3 18357.5 8321.53 36789.1 15664.1 21870.9 17318.7 26091.5 
22366.2 15729.2 30607.1 19218.8 13585.9 30476.9 21277.1 17258.2 25412.6 
19103.2 17195.3 23140.6 29535.9 31483.5 27135.5 29015.6 30594.3 24945.3 
22409.8 19003.4 23976.1 23859.4 21180.1 22882.8 19576.3 13907.7 30846.6 
16898.4 12285.5 31648.4 19880.2 17442.6 23574.9 19218.8 18804.1 20562.5 
28984.6 30942.6 25278.8 23127.8 20434.4 22992 23085.9 22539.2 20304.7 
19326 13682.5 30587.8 16393.1 13328.1 28554.7 23098.5 21907.8 21110.9 
24744.2 23898.4 21078.1 18344.5 13161.5 31215.5 17929.7 11757.5 35000 
18446.1 13576.1 29977.9 18445.3 14552.2 27265.6 19417.2 18395.6 21466.2 
21281.2 20227.2 20304.7 20722 19677.7 20653.1 20295.4 21320.3 17726.6 
21309 24407.6 15165 19734.4 22227.8 15406.2 17048.9 44526.2 50746.8 
15672.1 44778.2 50186.6 15597.9 44698.2 47765.4 12170.9 42176.1 43379.8 
23613 40166.7 43077.4 11315.6 41116.3 41724.2 10103.2 39841.9 39656 
23126.9 40070.2 41858.3 8381.03 37586.9 43413.8 14023.3 41193.4 37471.3 
6684.73 31197.6 44800.6 6070.31 30343.8 43126.2 28090.5 36631.5 41666.7 
30092.2 34210.9 41703.1 20074.5 41022.2 34406.2 22254.2 40056.1 36059.4 
29771.1 35233 38572.9 30046.9 35850.6 36289.1 29942.1 35615.9 37157 
29848.3 34430.9 41477.8 23494.8 40213.8 34002.4 11646.5 40593.9 35397.2 
14645.1 41229.5 32150.6 5510.14 26376.5 43754.9 4365.66 24414.1 41187.5 
5907.48 34629.8 39625.8 30747.6 29720.3 43405.9 31078.1 28281.2 42778.7 
29262.8 36355.6 36729.2 30046.9 37046.9 33030.3 31957.8 29054.7 38093.8 
18335.3 41528.3 27538.9 20765.6 41745.2 26750 31391.8 33993.5 34555.5 
31812.4 29154 38455.6 31647.4 27250 37578.1 31088.4 35242.2 32164.1 
4286.87 26989.5 30961.9 4217.16 24414.1 30359.4 31684.4 27719 37598.5 
31593.8 26928.2 36031.2 4827.86 26365.9 26454.4 4210.97 27507.8 24945.3 
23167.6 41269.2 26328.9 5232.94 34468.8 31390.6 5587.27 35426.6 30997.2 
5288.63 23912.4 26139.6 5737.22 23382.8 24687.5 4406.6 27307.8 25136.2 
4418.25 28281.2 23398.4 29507.8 35169.5 28971.3 29726.2 34984.4 27781.2 
27059.5 39366.7 29450 26695.3 40213.8 27781.2 31131.4 29316.6 31776.5 
30607.9 27765.6 30617.2 4500.13 27718.3 23909.3 5039.06 27250 21710.3 
6203.03 21664 25519 6782.91 22351.6 22625 6695.97 22259 23027.4 
6328.12 23331.2 22367.2 6013.08 25010.5 22319.2 5812.5 25157.6 21078.1 
6809.92 22296.9 22682 7341.84 22351.6 21335.9 29273.4 25960.9 47404.9 
30277.9 24203.1 37560 30304.7 23593.2 36546.9 27869.5 38801.9 27298.2 
26953.1 39004.2 24945.3 28169 35738.7 24979 28584.6 34210.9 24945.3 
30196.6 23668.9 36721 29599.3 22609.4 35257.8 6538.19 21196.1 25011.5 
7617.19 20169.4 23656.2 28191 35589.7 24727.9 27316.1 36531.2 22882.8 
8060.73 23746.4 19180.3 9164.06 22214.4 18500 22556.8 40548 19951 
21023.4 42053.6 20046.9 28122.5 19669.6 42705.8 27726.6 18947.4 41445.3 
6870.46 19180.9 27067.3 7875 17618.1 27007.8 15010.9 40773 17304.1 
13674.7 40140.6 16437.5 29627 22706.7 35292.9 29015.6 21746.2 33710.9 
4705.76 33517.6 26074.1 4213.03 32406.2 24429.7 26275.5 35113.9 20347.6 
27273.8 34210.9 21593.8 5783.63 32664.1 16695.3 7252.02 17475.1 29885.7 
7815.19 16937.5 28554.7 29214.7 26218.8 28296.9 8974.42 22464.2 18755.9 
9937.5 21043.9 19015.6 26953.1 18158.5 35515.6 8460.44 23936.9 18092.9 
8132.81 24929.7 16907.8 21148.7 41676.1 20021 18960.9 42260.9 20046.9 
29025.3 21934.3 33856.2 28351.5 21320.3 32421.9 6794.56 27845.8 16987.4 
7101.56 28281.2 15531 6726.29 37641.5 26917.5 7101.56 38129.7 24429.7 
12039.3 40296.3 21611.4 10921.3 39882.8 20820.3 12359.6 40139.4 20351.8 
14062.5 40715 19273.4 5296.88 35305.1 21593.8 28662 21718.3 32822.1 
28500 22277.3 30875 28422.4 21483 32445.5 27726.6 21032.6 31132.8 
7118.58 28163.7 15726.3 7815.19 28281.2 14117.2 7842.72 16938.3 28769.7 
9098.06 15906.2 27523.4 20250 42260.9 23656.2 23400.5 31117.2 14890.6 
27726.6 22093.8 29443.6 7986.69 29762.8 12625.6 8330.81 30859.4 11281.2 
9231.81 15043.9 29654.6 10195.3 14514.1 28296.9 8534.9 26765.2 14135.9 
9164.06 27366.5 12312.5 24382.5 14660 41272.2 23624.2 14359.4 39382.8 
9525.52 12782.8 34337.4 10710.9 11934.9 33453.1 26754.5 20524.6 29698.7 
26695.3 21512.1 28039.1 6768.57 14798.2 36067.9 6328.12 14499.6 38093.8 
27078.3 17748.7 45589.3 25951.8 15132.8 47117.2 9006.8 35231.7 12824.9 
10710.9 37074.7 12312.5 10199.7 36521.8 12466.3 11226.6 36591.1 10765.6 
22632.2 34147.3 14543.9 23401.5 32664.1 15148.4 6652.97 36015.6 17468.8 
26317.2 26171.9 22091.1 25921.9 26178.5 21078.1 26410.8 27287.5 21382 
27147 28796.9 22109.4 22045.6 15683.5 29808.5 21824.7 16164.1 28039.1 
8605.23 12240.6 38061.8 10453.1 11206.8 38609.4 21724.5 10775.1 44548 
20250 10234.4 43592.4 23109.2 33227.7 14918.8 24566.8 33437.5 16953.1 
23509 26950.8 16648.9 23343.8 25187.5 17418.2 21373.5 26580 12950.3 
20825.4 24929.7 13343.8 9857.06 9718.75 41703.1 21871.5 15542 29652.7 
20250 14851.3 28812.5 8470.03 37269.8 16534.6 9555.94 37562.5 15148.4 
21645.2 17295.7 25833.5 20250 16102.2 25976.6 24415 30704.2 16724.5 
24915.4 28796.9 17726.6 29314.2 26367.2 28528.8 28757.8 27250 26359.2 
20521.8 16512.8 25782.1 18703.1 16051.7 24945.3 19273.1 17335.3 23146.9 
17929.7 17435.6 21851.6 17679.3 12758.6 31414.6 16382.8 12741.3 30359.4 
23787.6 21178.8 22876.2 24757.6 22609.4 22625 17132.7 12427.4 31578.3 
16382.8 11726.6 33195.3 27563 30667 22304 26629.3 30343.8 20562.5 
26953.1 32148.4 20740.9 18265.1 14283.1 27889.7 17156.2 14512 26492.2 
20365.9 21191.9 17871.6 20250 21835.9 16608.7 19159.7 18725.6 20662.3 
18187.5 19498.1 18500 15526.4 45019.5 50720.7 14578.1 45340.2 49179.7 
14725.9 45178.9 49415.3 13804.7 44807 47890.6 20297.4 44007.8 48921.9 
12217.3 42646.6 45813.4 13031.2 43294.2 45054.7 20125.2 43983.4 49459.5 
22054.7 43083.8 48921.9 12128.2 42612.8 45237.8 11104.9 41687.5 44023.4 
21053.7 41970.5 44451 22312.5 41364.7 44281.2 11168 41710.9 44026.1 
[...]
CELL_DATA 1299
SCALARS radius float
LOOKUP_TABLE default
100 96.4176 96.4176 92.9635 92.9635 89.6332 92.9635 89.6332 89.6332 
86.4222 86.4222 89.6332 83.3262 80.3411 86.4222 74.6879 86.4222 83.3262 
83.3262 83.3262 86.4222 74.6879 77.463 83.3262 80.3411 72.0123 77.463 
83.3262 66.9452 80.3411 66.9452 77.463 77.463 77.463 72.0123 57.8555 
74.6879 80.3411 72.0123 72.0123 77.463 72.0123 60.0051 74.6879 74.6879 
66.9452 64.547 55.7829 69.4326 60.0051 64.547 69.4326 72.0123 62.2346 
53.7845 69.4326 66.9452 60.0051 72.0123 62.2346 74.6879 69.4326 66.9452 
57.8555 69.4326 64.547 55.7829 62.2346 53.7845 62.2346 53.7845 66.9452 
66.9452 57.8555 62.2346 74.6879 66.9452 64.547 77.463 69.4326 60.0051 
51.8578 60.0051 62.2346 51.8578 74.6879 60.0051 53.7845 60.0051 64.547 
53.7845 66.9452 62.2346 64.547 77.463 57.8555 55.7829 60.0051 60.0051 
53.7845 69.4326 64.547 55.7829 57.8555 48.2088 62.2346 53.7845 57.8555 
60.0051 51.8578 57.8555 50 55.7829 62.2346 55.7829 55.7829 50 
64.547 69.4326 55.7829 57.8555 51.8578 69.4326 51.8578 44.8166 55.7829 
51.8578 62.2346 53.7845 60.0051 60.0051 53.7845 55.7829 50 55.7829 
50 55.7829 50 60.0051 51.8578 51.8578 62.2346 53.7845 44.8166 
66.9452 57.8555 51.8578 51.8578 46.4818 51.8578 48.2088 57.8555 50 
53.7845 50 50 44.8166 55.7829 48.2088 55.7829 53.7845 48.2088 
57.8555 50 51.8578 53.7845 48.2088 55.7829 50 51.8578 48.2088 
51.8578 48.2088 62.2346 57.8555 57.8555 55.7829 48.2088 53.7845 48.2088 
57.8555 50 53.7845 46.4818 53.7845 46.4818 51.8578 44.8166 55.7829 
50 44.8166 50 46.4818 48.2088 46.4818 51.8578 44.8166 48.2088 
44.8166 48.2088 43.2111 46.4818 41.6631 50 48.2088 86.4222 89.6332 
83.3262 83.3262 83.3262 80.3411 77.463 80.3411 83.3262 80.3411 72.0123 
66.9452 80.3411 66.9452 83.3262 80.3411 74.6879 66.9452 72.0123 72.0123 
74.6879 74.6879 74.6879 62.2346 55.7829 72.0123 74.6879 69.4326 69.4326 
60.0051 66.9452 74.6879 72.0123 66.9452 72.0123 64.547 62.2346 69.4326 
60.0051 69.4326 64.547 69.4326 64.547 80.3411 66.9452 72.0123 66.9452 
62.2346 66.9452 60.0051 66.9452 60.0051 69.4326 64.547 64.547 62.2346 
64.547 62.2346 60.0051 53.7845 57.8555 53.7845 64.547 57.8555 55.7829 
50 60.0051 72.0123 66.9452 64.547 62.2346 62.2346 60.0051 69.4326 
62.2346 57.8555 51.8578 60.0051 53.7845 60.0051 51.8578 66.9452 57.8555 
57.8555 53.7845 55.7829 53.7845 55.7829 53.7845 66.9452 60.0051 72.0123 
69.4326 62.2346 57.8555 53.7845 60.0051 55.7829 51.8578 55.7829 51.8578 
60.0051 57.8555 53.7845 60.0051 57.8555 62.2346 55.7829 62.2346 57.8555 
69.4326 62.2346 66.9452 64.547 66.9452 60.0051 62.2346 60.0051 57.8555 
57.8555 53.7845 60.0051 55.7829 57.8555 53.7845 72.0123 55.7829 55.7829 
53.7845 51.8578 53.7845 51.8578 57.8555 53.7845 53.7845 51.8578 53.7845 
51.8578 55.7829 51.8578 53.7845 50 55.7829 50 48.2088 44.8166 
46.4818 44.8166 60.0051 53.7845 55.7829 50 43.2111 48.2088 46.4818 
53.7845 48.2088 46.4818 44.8166 50 48.2088 57.8555 53.7845 53.7845 
50 50 44.8166 43.2111 51.8578 48.2088 60.0051 57.8555 55.7829 
50 57.8555 51.8578 55.7829 51.8578 53.7845 50 50 46.4818 
50 46.4818 48.2088 43.2111 48.2088 41.6631 53.7845 51.8578 51.8578 
46.4818 44.8166 43.2111 41.6631 46.4818 41.6631 92.9635 86.4222 89.6332 
80.3411 72.0123 89.6332 80.3411 77.463 72.0123 86.4222 80.3411 80.3411 
77.463 83.3262 80.3411 80.3411 74.6879 74.6879 77.463 77.463 74.6879 
86.4222 77.463 72.0123 80.3411 74.6879 77.463 72.0123 77.463 72.0123 
77.463 72.0123 74.6879 74.6879 74.6879 77.463 72.0123 69.4326 69.4326 
64.547 74.6879 69.4326 66.9452 64.547 60.0051 72.0123 72.0123 80.3411 
72.0123 66.9452 60.0051 72.0123 64.547 69.4326 69.4326 66.9452 66.9452 
64.547 80.3411 74.6879 69.4326 72.0123 66.9452 69.4326 64.547 66.9452 
74.6879 72.0123 60.0051 57.8555 72.0123 69.4326 74.6879 72.0123 64.547 
62.2346 57.8555 62.2346 57.8555 64.547 60.0051 62.2346 57.8555 69.4326 
66.9452 62.2346 72.0123 66.9452 77.463 72.0123 69.4326 60.0051 74.6879 
69.4326 64.547 60.0051 69.4326 72.0123 69.4326 66.9452 64.547 77.463 
74.6879 72.0123 69.4326 64.547 57.8555 66.9452 62.2346 62.2346 60.0051 
69.4326 64.547 66.9452 60.0051 64.547 69.4326 66.9452 62.2346 57.8555 
64.547 60.0051 62.2346 55.7829 57.8555 53.7845 62.2346 55.7829 60.0051 
62.2346 60.0051 72.0123 66.9452 60.0051 55.7829 53.7845 48.2088 57.8555 
55.7829 60.0051 55.7829 60.0051 57.8555 53.7845 51.8578 62.2346 55.7829 
51.8578 57.8555 53.7845 55.7829 51.8578 53.7845 50 62.2346 55.7829 
53.7845 53.7845 51.8578 60.0051 55.7829 53.7845 51.8578 66.9452 57.8555 
53.7845 66.9452 64.547 57.8555 53.7845 55.7829 53.7845 55.7829 53.7845 
64.547 62.2346 55.7829 53.7845 57.8555 55.7829 50 48.2088 66.9452 
57.8555 53.7845 53.7845 51.8578 55.7829 53.7845 55.7829 51.8578 51.8578 
48.2088 44.8166 41.6631 53.7845 51.8578 64.547 62.2346 53.7845 50 
62.2346 53.7845 51.8578 64.547 62.2346 60.0051 57.8555 48.2088 46.4818 
51.8578 50 51.8578 50 50 48.2088 44.8166 43.2111 51.8578 
50 60.0051 50 48.2088 53.7845 51.8578 55.7829 53.7845 51.8578 
50 48.2088 44.8166 48.2088 46.4818 50 46.4818 44.8166 43.2111 
44.8166 43.2111 46.4818 44.8166 48.2088 46.4818 44.8166 41.6631 80.3411 
80.3411 83.3262 77.463 89.6332 83.3262 86.4222 80.3411 86.4222 80.3411 
83.3262 80.3411 74.6879 69.4326 86.4222 83.3262 83.3262 77.463 74.6879 
80.3411 74.6879 74.6879 72.0123 80.3411 77.463 80.3411 74.6879 77.463 
74.6879 77.463 74.6879 74.6879 72.0123 74.6879 72.0123 77.463 74.6879 
77.463 74.6879 69.4326 64.547 72.0123 69.4326 69.4326 66.9452 66.9452 
72.0123 72.0123 69.4326 69.4326 64.547 74.6879 69.4326 60.0051 57.8555 
69.4326 66.9452 72.0123 69.4326 64.547 69.4326 69.4326 66.9452 72.0123 
66.9452 69.4326 62.2346 69.4326 80.3411 77.463 74.6879 69.4326 77.463 
72.0123 66.9452 64.547 69.4326 64.547 66.9452 66.9452 72.0123 64.547 
62.2346 60.0051 66.9452 64.547 74.6879 72.0123 66.9452 64.547 66.9452 
69.4326 60.0051 57.8555 62.2346 74.6879 72.0123 69.4326 66.9452 64.547 
62.2346 62.2346 57.8555 64.547 60.0051 72.0123 66.9452 62.2346 60.0051 
57.8555 60.0051 66.9452 62.2346 62.2346 60.0051 64.547 66.9452 64.547 
66.9452 64.547 62.2346 60.0051 57.8555 60.0051 64.547 62.2346 60.0051 
57.8555 66.9452 55.7829 51.8578 64.547 62.2346 51.8578 50 55.7829 
53.7845 57.8555 51.8578 55.7829 51.8578 57.8555 55.7829 62.2346 55.7829 
62.2346 57.8555 55.7829 53.7845 55.7829 53.7845 60.0051 57.8555 64.547 
62.2346 53.7845 51.8578 53.7845 51.8578 57.8555 55.7829 53.7845 51.8578 
55.7829 53.7845 62.2346 60.0051 57.8555 64.547 62.2346 55.7829 53.7845 
64.547 60.0051 50 48.2088 55.7829 53.7845 51.8578 50 64.547 
51.8578 50 55.7829 53.7845 50 48.2088 46.4818 43.2111 51.8578 
48.2088 55.7829 53.7845 51.8578 48.2088 44.8166 43.2111 53.7845 51.8578 
53.7845 50 51.8578 50 50 48.2088 53.7845 51.8578 53.7845 
50 50 48.2088 51.8578 50 51.8578 50 46.4818 44.8166 
53.7845 50 48.2088 46.4818 51.8578 48.2088 53.7845 51.8578 46.4818 
44.8166 48.2088 46.4818 50 53.7845 51.8578 51.8578 50 46.4818 
44.8166 46.4818 44.8166 46.4818 44.8166 60.0051 46.4818 44.8166 44.8166 
43.2111 83.3262 80.3411 86.4222 83.3262 80.3411 77.463 83.3262 77.463 
80.3411 77.463 74.6879 69.4326 80.3411 83.3262 80.3411 74.6879 83.3262 
80.3411 77.463 74.6879 69.4326 72.0123 69.4326 80.3411 80.3411 74.6879 
74.6879 69.4326 72.0123 66.9452 80.3411 77.463 74.6879 77.463 74.6879 
77.463 74.6879 83.3262 66.9452 62.2346 64.547 62.2346 66.9452 69.4326 
66.9452 62.2346 55.7829 74.6879 72.0123 66.9452 66.9452 64.547 66.9452 
64.547 77.463 72.0123 74.6879 72.0123 64.547 62.2346 66.9452 64.547 
77.463 74.6879 66.9452 64.547 74.6879 77.463 74.6879 69.4326 66.9452 
57.8555 55.7829 69.4326 66.9452 74.6879 66.9452 60.0051 64.547 62.2346 
72.0123 69.4326 74.6879 72.0123 77.463 74.6879 69.4326 66.9452 64.547 
66.9452 62.2346 60.0051 57.8555 69.4326 66.9452 62.2346 57.8555 72.0123 
55.7829 53.7845 62.2346 60.0051 69.4326 64.547 62.2346 62.2346 60.0051 
62.2346 60.0051 60.0051 57.8555 64.547 60.0051 51.8578 50 64.547 
72.0123 69.4326 62.2346 60.0051 60.0051 57.8555 60.0051 55.7829 53.7845 
64.547 62.2346 64.547 62.2346 69.4326 66.9452 72.0123 69.4326 60.0051 
57.8555 57.8555 53.7845 64.547 62.2346 55.7829 53.7845 60.0051 55.7829 
64.547 62.2346 72.0123 66.9452 53.7845 51.8578 55.7829 53.7845 60.0051 
57.8555 57.8555 55.7829 66.9452 64.547 62.2346 60.0051 50 48.2088 
57.8555 53.7845 53.7845 51.8578 60.0051 57.8555 51.8578 50 60.0051 
55.7829 55.7829 53.7845 57.8555 55.7829 57.8555 55.7829 66.9452 64.547 
55.7829 53.7845 57.8555 55.7829 64.547 60.0051 62.2346 60.0051 72.0123 
69.4326 43.2111 41.6631 62.2346 60.0051 55.7829 53.7845 55.7829 53.7845 
64.547 62.2346 50 48.2088 51.8578 50 62.2346 60.0051 51.8578 
50 51.8578 50 44.8166 43.2111 57.8555 55.7829 46.4818 44.8166 
55.7829 53.7845 50 48.2088 50 48.2088 51.8578 50 51.8578 
50 51.8578 50 51.8578 50 46.4818 44.8166 50 48.2088 
43.2111 41.6631 48.2088 46.4818 43.2111 41.6631 43.2111 41.6631 83.3262 
80.3411 86.4222 83.3262 80.3411 77.463 74.6879 72.0123 86.4222 83.3262 
72.0123 69.4326 83.3262 77.463 72.0123 69.4326 80.3411 77.463 83.3262 
80.3411 77.463 74.6879 77.463 74.6879 83.3262 80.3411 77.463 74.6879 
86.4222 83.3262 80.3411 77.463 74.6879 72.0123 72.0123 66.9452 69.4326 
66.9452 69.4326 66.9452 66.9452 64.547 69.4326 66.9452 74.6879 72.0123 
72.0123 69.4326 74.6879 69.4326 60.0051 57.8555 72.0123 69.4326 69.4326 
66.9452 57.8555 53.7845 55.7829 53.7845 72.0123 69.4326 74.6879 72.0123 
72.0123 69.4326 64.547 62.2346 64.547 62.2346 69.4326 64.547 66.9452 
64.547 80.3411 74.6879 66.9452 64.547 69.4326 66.9452 72.0123 69.4326 
74.6879 72.0123 62.2346 60.0051 69.4326 64.547 64.547 62.2346 62.2346 
60.0051 69.4326 66.9452 69.4326 66.9452 77.463 74.6879 66.9452 64.547 
66.9452 64.547 69.4326 64.547 60.0051 57.8555 62.2346 60.0051 66.9452 
64.547 64.547 60.0051 69.4326 66.9452 66.9452 64.547 62.2346 60.0051 
53.7845 51.8578 62.2346 60.0051 64.547 62.2346 64.547 62.2346 64.547 
62.2346 64.547 62.2346 62.2346 60.0051 66.9452 64.547 74.6879 72.0123 
69.4326 66.9452 57.8555 55.7829 62.2346 60.0051 62.2346 60.0051 57.8555 
55.7829 60.0051 57.8555 62.2346 60.0051 57.8555 55.7829 62.2346 60.0051 
53.7845 51.8578 64.547 60.0051 53.7845 51.8578 53.7845 51.8578 62.2346 
60.0051 57.8555 55.7829 
