# vtk DataFile Version 4.1
vtk output
ASCII
DATASET POLYDATA
POINTS 1300 float
16125 47875 54078.1 14835.9 45358.8 52015.6 15325.8 46314.9 52799.4 
19734.4 43794.3 47117.2 14982.9 45645.6 52250.8 12000 42777.5 45054.7 
18311.3 44216 47965.6 18072 41945.3 42218.8 12700.4 42826.6 45300.7 
11608.1 40914.1 40671.9 19307.5 43920.9 47371.7 25782.7 39625 46085.9 
22804.1 41601.1 46677.4 24117.2 39139.3 39898.4 12372.8 42252.8 43912.1 
7617.19 36561.2 43507.8 17603.4 42470.4 42614 16125 41225.5 37062.5 
9424.35 38724 43661.5 6776.72 36789.1 37062.5 25366.1 39689.4 45956.9 
28551.6 36273.4 44023.4 8430.53 37012.6 43911 6843.75 31907.1 45828.1 
23401.7 39955.8 41006.9 21539.1 40224.2 34742.2 27828.6 37064.1 44040.1 
29531.2 35332.9 40414.1 7827.56 35072.5 44639.5 5554.69 31375 41238 
7050.52 36469.8 38380.1 4728.66 33437.5 34226.6 16453.7 41625.3 37250.8 
15609.4 41230.7 31390.6 6236.55 32484.3 42258.5 5756.81 26992.2 44023.4 
24164.3 39408.6 40119.3 27468.8 37622.3 36804.7 28334.7 36510.6 44028.5 
31078.1 31117.2 43513 6880.77 36667.8 37563.2 10710.9 40214.9 34742.2 
29304.4 35711.2 40637.3 31153.4 34210.9 36031.2 22062.9 40421 35230.9 
21281.2 41233.8 29328.1 5900.77 28639.8 43494 4523.44 25445.3 40736.8 
5325.85 33325 34906 4207.87 29570.3 31906.2 15746 41345.1 31465.9 
15351.6 41230.7 27523.4 5870.15 27422.9 44144.2 5959.97 23125 47117.2 
5713.91 31652 41210 4207.87 29312.5 37320.3 30027.8 31832.5 43893.1 
30462.5 27507.8 44281.2 30763.1 31331.8 43627 32133.1 29570.3 38609.4 
30598.7 34661 37413 30070.6 37046.9 32937.5 26477.4 38158.3 37799 
26179.7 39670.4 32937.5 15650.3 41265 31413.2 10968.8 40709.9 30101.6 
4509.72 30151 32210.9 4207.87 26476.6 28296.9 6807.96 36752.7 37212.8 
6843.75 37902.8 31906.2 4754.54 31103.2 33019.4 4207.87 31117.2 25976.6 
31556.1 29845.2 38915.7 31638.1 28539.1 33968.8 21889.3 41081.8 30344.4 
24117.2 41716.4 25203.1 21351.3 41216 29386.3 19218.8 41747.3 25460.9 
15581.5 41361.9 27873.2 15609.4 41535.9 23140.6 30043.8 36380.7 33077.5 
29541.6 37562.5 29328.1 23473.6 41411.6 25570.8 23728.4 41171.9 22109.4 
11817.2 40592.1 29799.4 8648.44 39654.9 27523.4 6606.67 37091.7 33474.8 
5240.16 34984.4 29843.8 4609.34 26910.6 28538.7 5296.88 23827.3 24687.5 
4424.64 26710.9 28427.5 4723.5 22867.2 29843.8 4407.73 30644.2 27553.3 
4581.19 27765.6 23656.2 5276.97 24669.7 25222 6480.75 23898.4 21078.1 
31254.7 30410.1 40705.9 30618.2 24414.1 39382.8 15961.4 41539.1 23500.1 
16898.4 41746.3 19015.6 30106.5 28006 44465.2 28757.8 22725.9 46343.8 
4529.11 28629.2 24825.4 4722.47 30085.9 21078.1 29229.8 24341.1 45303.3 
28757.8 21062.5 43608.9 31471.4 28494.7 35123.9 30605.8 25703.1 32679.7 
15715 41536.8 23248.5 11442.1 40656.2 23656.2 29623.7 36860.1 30135.1 
28872.3 35500 25718.8 5290.9 24080 24847.9 6280.69 20546.9 26492.2 
29566.2 37351.8 29570.2 27318.2 39367.2 26234.4 30865.5 26540.6 33413 
30118 27507.8 29843.8 30571.7 25347.8 38978.5 29906.6 22609.4 36804.7 
23652 41243.8 23147.8 25939.4 37046.9 20562.5 29338.1 36343.3 28456.9 
29906.6 31632.8 27265.6 23705.5 41193.4 22420.9 22381.6 39882.8 18242.2 
28777 22893 46388.5 27984.4 20804.7 48670.2 16385.7 41573.9 19829.4 
15043.2 40914.1 16179.7 22936.4 40917.4 20852 20765.6 41749.4 19273.4 
28811.1 35763.8 26097.1 27536.8 35757.8 23140.6 5032.15 23105.3 29566 
6252.84 18226.6 30875 22499.1 39780.7 18427.6 22167.1 38335.9 15921.9 
6531.38 23870.9 21836 9164.06 22214.4 18500 9143.02 39549.9 28065.8 
6070.31 37097.4 27007.8 6495.91 23890.2 21305.5 6310.59 26476.6 18757.8 
25406.9 37187.9 20966.4 25998.2 33953.1 19789.1 6282.85 26247.5 19301.3 
5754.75 29828.1 17726.6 6308.84 21156.3 25903.8 8390.62 18086.3 25460.9 
29887.4 23274.5 37883.8 27726.6 18949.5 37835.9 15641.1 41536.2 23173 
13031.2 40671.7 20562.5 29066.3 21631 37865.6 27984.4 19966.3 34484.4 
6363.6 18494.5 31036.8 7359.38 15495.8 32164.1 28636.6 21406.3 43907.8 
26982 17195.3 42476.6 7099.91 19989.7 25735.5 8906.25 19515.6 22454.8 
30683.7 25954.4 32899.7 27984.4 22714.6 29070.3 4267.79 30975.3 26449.6 
4727.62 33953.1 24171.9 8341.12 23102.1 19198.4 9867.37 24414.1 15148.4 
8796.84 39623.5 27686.1 8340.09 39367.2 24687.5 6302.24 26407.8 18920.9 
7617.19 26849.9 15921.9 15090.8 40789.7 16333.8 14062.5 39904.5 13601.6 
6039.07 29222.3 17790.8 6767.44 32406.2 15148.4 22413.9 38451.9 16891.1 
22910.6 34726.6 15148.4 6257.59 30177.5 16998.1 7319.16 29570.3 14117.2 
6286.05 18306.9 30923.5 8132.81 16031 29328.1 25693.9 34465.6 19818.2 
24964.9 31375 17726.6 27835.6 19355.7 37913 25921.9 16679.7 38328.9 
7329.47 15901.8 32236.5 8390.62 13518.9 33710.9 28568.8 23711.9 29635 
26953.1 23590.1 25718.8 6842.2 32283.5 15307.2 7617.19 34515.2 13601.6 
15686.5 41150.4 17941.7 12257.8 39652.8 17468.8 27987.7 20136.1 35151.7 
25921.9 17968.8 32730.2 12680.9 40820.1 23152.6 9608.53 39625 21078.1 
27340.5 18290 43374.6 25406.2 14487.2 45312.5 4884.27 33668.1 24178.9 
5812.5 36338.4 21593.8 25003.5 32456.7 18097.7 23418 31375 15148.4 
7351.64 29692.4 14279.9 8648.44 29312.5 11406 7732.69 14996.4 32796.8 
6843.75 14499.6 36031.2 10034.1 39594 21814.1 7617.19 38148.2 21335.9 
25956.8 16984.2 38418.7 23859.4 14709 39125 7880.47 16591.9 29434 
9892.13 15648.4 27007.8 26335.3 18590 32930.7 24890.6 18226.6 29492.1 
7678.96 34122.7 13809.5 9552.85 36015.6 11796.9 8413 13785.8 33643.6 
10195.3 11731.8 35515.6 27117.8 23981.2 25955.5 25921.9 24414.1 22832.3 
25639.8 15184.3 44644.9 23343.8 12131.9 44281.2 23893.6 31699.5 16033.2 
23343.8 28796.9 15080.4 28000.5 22839.9 29204.9 26304.5 20546.9 28296.9 
26150 16116 44263.8 25996.1 15648.4 47375 24804.2 18150.7 29766.1 
23343.8 17643.9 27523.4 26472 24215 24268.9 27000.6 26992.2 22625 
7335.35 14365 35220 8132.81 12296.9 38322.7 23508.7 29667.7 15366.2 
21826.8 29054.7 12054.7 9115.7 39044.6 21632.4 8390.62 38335.9 18660.9 
8405.89 38283.9 19332.4 7101.56 36597.2 17726.6 23393.2 29058.1 15166.2 
21854.6 26218.8 13859.4 26705.2 21313.4 28289.8 24926.7 20289.1 25976.6 
23428.8 12716.8 44181 21023.4 10732.5 43507.8 7893.56 12917.4 37391.9 
6267.28 12812.5 40929.7 24249.2 17958.1 28913.9 21796.9 15586.6 29070.3 
8102.08 12347.1 38280.2 8648.44 10750 40878.1 26058.1 24552.3 23102.8 
24890.6 26127 19531.2 23371.9 17727.2 27656.4 21281.2 17453.1 24996.9 
8395.16 38320.3 18862.3 9164.06 37562.5 15612.5 21926.1 28817.7 12536.9 
20259.3 27507.8 9992.19 26715.1 25492.5 23512.7 28500 28015.2 24945.3 
22316.2 27070.6 14251.4 21796.9 23805.6 16179.7 21908.5 17535.3 25794.7 
22312.5 18981.4 23656.2 22076.3 15898.5 29381.2 19992.2 13990.2 30359.4 
21880.7 15680.1 29163.6 19992.2 15373.1 27007.8 21469.4 17477.8 25236.2 
18586.6 16679.7 23656.2 28069.1 27732.2 24522.4 28864 30859.4 24687.5 
20031.8 14368 30256.9 17156.2 12613.5 31390.6 25962.7 24455.5 22913.5 
23859.4 21722.5 22109.4 19912.7 17046.8 24383 19218.8 18466.8 21078.1 
26946 26816.5 22934.5 27487.3 30343.8 22109.4 24826.9 22979.7 22479.2 
23343.8 22842.4 19789.1 20645.1 14827.1 29994.2 17156.2 13767.4 28554.7 
18018.9 13139.8 31050.5 17929.7 11779.2 34742.2 23646.3 22677.4 20710.7 
21796.9 21320.3 19646.8 20141.2 15385 27445.5 17414.1 14865.7 25976.6 
21823.9 21465.8 19738.3 19779.7 20289.1 18757.8 21654.7 24411.4 15659 
19779.7 21835.9 16179.7 15885.2 47407 53694.5 18187.5 44856.5 52273.4 
18068.1 45320 52253.5 19734.4 44325.4 50984.4 14610.5 44735.4 49145.3 
15609.4 44811.2 47117.2 19584.9 44482.6 50957.4 21104.9 43750 49437.5 
17263.9 43545.4 45402.6 16171.4 43492.2 44539.1 19606.3 43832.3 47193.5 
20507.8 42274.3 44796.9 21066.6 43027.5 47566.9 22593 42718.8 48664.1 
20571.2 42346.3 44842.2 21281.2 41369.9 43250 16402.9 43410.2 44588.7 
15093.8 42773.4 42734.4 15119.2 42724.1 42818.4 14062.5 42051.5 41445.3 
18064.4 42148.5 42343.6 19992.2 41183.2 41445.3 11527.3 41095 41474.5 
9555.94 39625 40156.2 11583.9 40968.4 40912.7 13289.1 41234.8 39898.4 
10042.1 39951.1 40072.8 9039.28 39109.4 38351.6 19413.8 41472.8 41714.8 
19776.7 40656.2 39125 24547.2 40231.8 45830.1 25921.9 38784.5 43250 
25698.2 38934.1 43364 26301.4 38078.1 41445.3 7912.02 36606.8 43496.9 
6760.22 35242.2 41960.9 19666.9 40845.4 39304 19799.3 40398.4 36804.7 
26120.4 38334.9 42020.9 27498.7 37304.7 41960.9 7518.08 36870.5 39990.7 
5812.5 34984.4 39699.4 6144.56 35402.1 36122.6 5755.78 35500 34742.2 
16223.6 41345.4 37119 14062.5 41230.7 35000 25783.5 38533.3 38495.1 
27806 37046.9 39382.8 7217.68 32506.8 45803.2 7617.19 30085.9 47942.2 
29374.6 34045.1 43716.8 30562.5 33268.4 42218.8 16561.2 41450.1 35157.2 
18586.6 40914.1 33453.1 14133.9 41169.6 35075.4 12465.1 40914.1 33453.1 
5154.46 32658.5 34340 4723.5 33179.7 32164.1 30314.3 33465.7 42298.4 
31080.2 33179.7 39898.4 25769.6 39318.2 34646.2 24375 40140.6 33484.1 
18092.2 41103.1 33624.5 18960.9 41230.7 31390.6 27453.7 37623.6 36964.9 
29273.4 36597.2 36031.2 15237.7 41273.7 36523.2 13211.7 41171.9 36804.7 
4946.97 30076.2 39764.9 4265.62 28029.6 39382.8 6122.39 35132.7 39589.4 
4736.91 32406.2 38351.6 27464.2 37622.6 36852.7 27984.4 38078.1 35081.5 
15670.3 41352.9 29813.3 17414.1 41230.7 28812.5 18747.8 41183.4 31459.2 
19218.8 41230.7 29585.9 8535.83 38596.2 35136.3 8906.25 39485.8 33195.3 
13553 41131.2 36909.2 11742.2 40685.1 38093.8 13978.2 41024.5 30376 
13289.1 41229.6 28039.1 30898.3 34418 36666.9 32109.4 32217.5 36546.9 
31649.1 33053.7 36592.5 32109.4 32153.6 34742.2 31860.8 32639.7 35741.3 
31647.4 33953.1 33710.9 26256 39443.7 33527.9 27984.4 39133.1 31906.2 
19566.4 41531.7 27392 17414.1 41736 26750 6024.42 24228.7 46909 
6267.28 23382.8 48921.9 4429.59 29541.6 38053.6 4207.87 26992.2 37320.3 
4494.36 28725.5 31068.5 4207.87 26218.8 31132.8 31745.6 33348.9 34644.9 
31646.3 32148.4 32421.9 31676.1 32508.6 33088.8 31132.8 33695.3 31132.8 
13277.6 41085.8 28784.8 11484.4 40715 27523.4 4278.83 27374.9 37194.1 
4207.87 25445.3 36031.2 4422.27 29535.9 26450 4207.87 27765.6 26492.2 
31655.3 32256.5 32621.9 31593.8 30085.9 32569.3 29583.4 37204.3 29739.7 
28500 38976.3 30101.6 23924.1 41624.9 25313.4 25406.2 41019.2 25203.1 
4565.62 28024.7 24007 5224.69 25703.1 23398.4 31545 30491.5 32454.6 
[...]
CELL_DATA 1299
SCALARS radius float
LOOKUP_TABLE default
0.0597207 1.14938 0.0491563 0.791915 0.0723395 1.00693 0.0440555 0.790095 0.0675382 
0.928606 0.0647218 0.925544 0.0486656 0.789893 0.067641 0.592063 0.0542234 0.783907 
0.0539656 0.817654 0.0612843 0.410799 0.0726954 0.619466 0.0683253 0.817191 0.0708026 
0.40728 0.0720969 0.740262 0.084073 0.582019 0.0437286 0.37844 0.0556683 0.334068 
0.0487416 0.750587 0.0669195 0.328666 0.0692251 0.497123 0.0829676 0.58319 0.0514046 
0.314485 0.137092 0.716021 0.0817046 0.552761 0.0754899 0.274281 0.09558 0.270439 
0.110117 0.747227 0.0791107 0.695341 0.0804039 0.495831 0.070142 0.298944 0.0622911 
0.361181 0.0955566 0.679169 0.0709421 0.272621 0.0677327 0.712247 0.0670713 0.508531 
0.0951484 0.58061 0.0723955 0.210376 0.107687 0.490995 0.0461018 0.427491 0.0787316 
0.567567 0.072557 0.331497 0.0775701 0.271915 0.110483 0.675764 0.0728223 0.484315 
0.0808222 0.361555 0.0768657 0.576001 0.0708969 0.693192 0.091079 0.484583 0.0768718 
0.43087 0.0503983 0.258384 0.164418 0.41663 0.0636746 0.507047 0.0729496 0.398462 
0.0555072 0.422161 0.0976755 0.318326 0.104637 0.251247 0.109818 0.504715 0.106537 
0.581949 0.074701 0.564578 0.0925311 0.374808 0.0865981 0.358114 0.0436957 0.238335 
0.122166 0.363954 0.0671181 0.357119 0.125115 0.259965 0.121927 0.48234 0.0598077 
0.338141 0.118336 0.519846 0.0988357 0.307854 0.124083 0.48656 0.0718502 0.500919 
0.0931099 0.481902 0.0811266 0.303936 0.118927 0.581204 0.0636915 0.201267 0.091341 
0.571867 0.0683578 0.477973 0.0673784 0.381169 0.117914 0.274423 0.110429 0.492169 
0.0720676 0.289593 0.0886097 0.278854 0.127634 0.211337 0.141444 0.252007 0.108529 
0.236721 0.169482 0.454068 0.0677914 0.311611 0.0994926 0.428344 0.0712618 0.2334 
0.0775152 0.499865 0.114306 0.294016 0.0682313 0.455494 0.0898242 0.488063 0.0719106 
0.346256 0.122981 0.34832 0.144717 0.539702 0.0682059 0.376433 0.111128 0.348657 
0.0931226 0.264898 0.122756 0.498785 0.0630586 0.301832 0.133668 0.432415 0.0946751 
0.356151 0.138056 0.265003 0.148923 0.232083 0.166139 0.527434 0.0797671 0.299573 
0.168285 0.274439 0.114072 0.473471 0.0659446 0.317012 0.126054 0.496776 0.0674425 
0.194699 0.12485 0.339173 0.150346 0.518089 0.0719766 0.469278 0.0771447 0.376515 
0.0739434 0.483396 0.0916348 0.352507 0.0913144 0.345303 0.118504 0.409287 0.106926 
0.19135 0.17168 0.301385 0.186118 0.354158 0.189417 0.517458 0.0751133 0.335089 
0.124239 0.389516 0.0810529 0.396528 0.092693 0.282439 0.110274 0.354086 0.109557 
0.353694 0.084603 0.386855 0.143119 0.395736 0.0672838 0.420653 0.100202 0.26225 
0.113717 0.346651 0.149602 0.278006 0.179137 0.359398 0.115794 0.297193 0.141719 
0.335124 0.0962391 0.274269 0.136036 0.296107 0.137741 0.38349 0.164808 0.356783 
0.138825 0.284864 0.104608 0.26018 0.171249 0.273697 0.147662 0.350049 0.168276 
1.15131 0.072875 0.191379 0.0737629 0.791802 0.0934538 0.139664 0.132438 0.602992 
0.0580277 0.174451 0.0427159 0.926349 0.0869847 0.164826 0.118535 0.218366 0.0519528 
0.216992 0.0667175 0.203228 0.0812921 0.21595 0.080206 0.121265 0.113835 0.202368 
0.101678 0.193704 0.0770448 0.82022 0.0701286 0.172824 0.0836039 0.120882 0.113364 
0.175391 0.104342 0.168886 0.127882 0.743646 0.0732614 0.718004 0.069683 0.263373 
0.0577195 0.320143 0.0811827 0.208677 0.106996 0.750451 0.0570076 0.563457 0.0749852 
0.212954 0.0772794 0.715634 0.0664313 0.166875 0.119807 0.264015 0.105236 0.210764 
0.0607345 0.193408 0.110469 0.262605 0.0594132 0.261837 0.109165 0.177451 0.121871 
0.149625 0.121307 0.495665 0.102536 0.197049 0.115185 0.244638 0.0820864 0.194263 
0.106784 0.360967 0.0787675 0.333142 0.0750818 0.331418 0.0995681 0.312651 0.103149 
0.241862 0.130199 0.209348 0.115911 0.249267 0.160009 0.2057 0.117042 0.678035 
0.113307 0.309248 0.0760358 0.305374 0.0933105 0.219701 0.0886053 0.194592 0.179308 
0.284291 0.119764 0.259656 0.0991946 0.282663 0.0940554 0.125046 0.116369 0.220547 
0.154006 0.257464 0.0824387 0.188749 0.146605 0.23819 0.121057 0.325948 0.0812643 
0.184119 0.142841 0.510523 0.081518 0.191444 0.0665312 0.36969 0.132293 0.206158 
0.101334 0.191973 0.158596 0.208971 0.125074 0.181686 0.101533 0.198123 0.17988 
0.181205 0.12151 0.429979 0.108448 0.540034 0.0912031 0.481583 0.107525 0.321528 
0.0762944 0.457739 0.131791 0.317051 0.127129 0.380552 0.120964 0.240954 0.14856 
0.2347 0.128606 0.299745 0.113441 0.15608 0.151828 0.201709 0.0907944 0.250031 
0.0752782 0.360692 0.138214 0.199592 0.109592 0.190209 0.109371 0.210682 0.0876517 
0.287857 0.129443 0.270249 0.0812873 0.364224 0.127804 0.211515 0.166245 0.170121 
0.129441 0.245918 0.139623 0.210786 0.0765896 0.204574 0.180078 0.361138 0.124385 
0.201179 0.10054 0.273653 0.123473 0.208362 0.11321 0.238985 0.0985534 0.255285 
0.151236 0.226166 0.1364 0.240859 0.186742 0.244571 0.140948 0.571254 0.100958 
0.239469 0.18112 0.382083 0.133949 0.170118 0.153473 0.187494 0.118637 0.237186 
0.148843 0.231373 0.133782 0.234049 0.218507 0.217508 0.197916 0.287852 0.102281 
0.1964 0.129862 0.261551 0.110734 0.173865 0.163953 0.275103 0.158922 0.363727 
0.15465 0.292694 0.163929 0.26558 0.240821 0.157425 0.15099 0.195401 0.186394 
0.224491 0.156357 0.207072 0.113806 0.194209 0.172523 0.308772 0.177888 0.204659 
0.192184 0.372055 0.105749 0.30188 0.187943 0.29921 0.121691 0.20495 0.195099 
0.251399 0.113272 0.272878 0.082856 0.170783 0.167228 0.30827 0.172324 0.28916 
0.171126 0.202055 0.188488 0.333723 0.129744 0.25576 0.159333 0.320265 0.142525 
0.24846 0.195595 0.341886 0.179156 0.268506 0.252709 1.00722 0.0728552 0.178874 
0.0993763 0.791368 0.0620265 0.133662 0.079256 0.129052 0.118201 0.141155 0.0953069 
0.9258 0.0869126 0.209307 0.108999 0.132984 0.122446 0.621192 0.0839024 0.198949 
0.069559 0.620682 0.0876186 0.181061 0.115369 0.139688 0.128892 0.817519 0.0869255 
0.188809 0.110121 0.585223 0.0763542 0.158027 0.0738949 0.170289 0.156077 0.132922 
0.125239 0.156474 0.0940208 0.145152 0.0899045 0.175693 0.091904 0.182677 0.121632 
0.188882 0.139068 0.319795 0.117012 0.150638 0.0897546 0.132362 0.128995 0.178447 
0.133561 0.173028 0.113794 0.162041 0.145642 0.20769 0.0993744 0.157579 0.139166 
0.263595 0.141402 0.240119 0.113487 0.17259 0.15438 0.432706 0.10089 0.208549 
0.0969481 0.211531 0.117581 0.490399 0.102839 0.186566 0.177396 0.203934 0.11357 
0.225004 0.166218 0.198653 0.084255 0.511324 0.0719465 0.431597 0.0906652 0.421126 
0.0979029 0.129626 0.121772 0.226522 0.107347 0.483808 0.100897 0.187518 0.116722 
0.1277 0.120217 0.13721 0.131646 0.57988 0.108113 0.196779 0.180141 0.149287 
0.146684 0.124221 0.117535 0.488887 0.0810087 0.582772 0.0942611 0.310085 0.120252 
0.232376 0.134848 0.25246 0.152445 0.222201 0.0960012 0.145737 0.122091 0.257184 
0.11134 0.166459 0.113632 0.203717 0.0962831 0.486057 0.116672 0.203319 0.0961958 
0.504555 0.116512 0.201622 0.0942837 0.217222 0.106762 0.180634 0.165942 0.196098 
0.139421 0.54194 0.104705 0.168803 0.119689 0.540634 0.0934338 0.243102 0.139907 
0.19402 0.151587 0.303119 0.083147 0.184796 0.138852 0.191487 0.173344 0.184348 
0.168746 0.212647 0.183279 0.198235 0.118528 0.184683 0.166516 0.305816 0.124701 
0.238496 0.125933 0.176471 0.154691 0.311669 0.140558 0.200458 0.117926 0.25521 
0.138375 0.528765 0.103657 0.458652 0.125549 0.261232 0.161272 0.475599 0.112867 
0.242822 0.118202 0.238887 0.137672 0.225831 0.214475 0.209484 0.138371 0.235707 
0.218879 0.189864 0.133184 0.519414 0.102275 0.206698 0.183528 0.292499 0.184621 
0.263545 0.176345 0.271193 0.143849 0.206718 0.161952 0.20869 0.188467 0.256969 
0.127799 0.227445 0.143346 0.203788 0.176707 0.423969 0.121058 0.206932 0.194665 
0.251367 0.175616 0.252208 0.191334 0.293847 0.144483 0.266491 0.166974 0.249808 
0.190353 0.333885 0.145572 0.213344 0.18782 0.251508 0.224097 0.185604 0.172929 
0.321015 0.153862 0.287684 0.153743 0.263547 0.226803 0.221711 0.140331 0.218039 
0.196629 0.226618 0.21774 0.195472 0.186171 0.344427 0.147707 0.198785 0.193866 
0.215265 0.176504 0.283539 0.170292 0.324876 0.170928 0.261377 0.193085 0.252727 
0.166532 0.243131 0.226998 0.29448 0.19401 0.243428 0.212972 0.18779 0.0965186 
0.144208 0.126359 0.926549 0.0801612 0.17314 0.0893091 0.593291 0.0820415 0.622343 
0.0863749 0.784475 0.0817775 0.784179 0.0794258 0.620099 0.0900214 0.743964 0.0808393 
0.104024 0.10132 0.582734 0.0899427 0.196416 0.123295 0.169671 0.149614 0.178666 
0.135798 0.116099 0.103843 0.229933 0.0665384 0.122344 0.115397 0.135739 0.125273 
0.220895 0.103885 0.111708 0.10244 0.153193 0.121546 0.119616 0.108854 0.150775 
0.137445 0.146514 0.112542 0.135449 0.13125 0.114521 0.109604 0.218758 0.111826 
0.26872 0.113269 0.148328 0.121416 0.695134 0.0756452 0.135588 0.112257 0.160137 
0.141041 0.156537 0.126529 0.363521 0.0918595 0.439555 0.078743 0.125552 0.115637 
0.165461 0.0961012 0.173187 0.110759 0.693766 0.0938873 0.175486 0.117553 0.678775 
0.100706 0.676979 0.0933193 0.180088 0.101831 0.175628 0.127258 0.194676 0.134686 
0.16844 0.147694 0.328829 0.0974887 0.507861 0.0856687 0.131473 0.115161 0.163814 
0.146545 0.277022 0.0968231 0.143002 0.118421 0.583609 0.0948679 0.419354 0.112608 
0.180619 0.139954 0.511763 0.0990472 0.176011 0.13169 0.178562 0.142004 0.145164 
0.136214 0.146883 0.138074 0.187774 0.138063 0.386079 0.0679864 0.188575 0.14742 
0.268613 0.131522 0.2402 0.112446 0.180384 0.112299 0.201016 0.19043 0.293546 
0.112986 0.479789 0.107702 0.127334 0.125595 0.257662 0.146069 0.210379 0.103366 
0.178815 0.144344 0.180534 0.147469 0.268763 0.122646 0.489168 0.092501 0.231423 
0.128959 0.208479 0.13384 0.149856 0.11995 0.134528 0.122977 0.180368 0.173452 
0.191671 0.13469 0.167092 0.135655 0.226556 0.164442 0.228806 0.121308 0.250045 
0.127396 0.273108 0.121248 0.189488 0.167699 0.192935 0.180033 0.207795 0.148564 
0.153068 0.13675 0.191162 0.178311 0.307215 0.126952 0.193925 0.17814 0.154209 
0.147382 0.172628 0.145784 0.204853 0.10865 0.226716 0.178754 0.140854 0.134307 
0.205524 0.109161 0.18688 0.160884 0.164888 0.154325 0.184436 0.112437 0.166359 
0.147094 0.192611 0.180319 0.192734 0.155513 0.208302 0.197299 0.200891 0.181915 
0.283396 0.128648 0.212839 0.127361 0.228106 0.186172 0.390796 0.121358 0.219281 
0.188721 0.265149 0.145055 0.240582 0.191543 0.310565 0.146853 0.215726 0.202097 
0.209579 0.19388 0.2638 0.186687 0.279221 0.150537 0.230025 0.204379 0.227995 
0.219049 0.176501 0.169768 0.241511 0.232902 0.251921 0.114758 0.217149 0.205892 
0.2092 0.202177 0.246742 0.215522 0.250254 0.203874 0.242228 0.21664 0.225872 
0.18664 0.270472 0.23198 0.196878 0.0853537 1.00709 0.0781518 0.928795 0.0789178 
0.603409 0.076957 0.11008 0.088344 0.112198 0.0910269 0.139839 0.123175 0.592767 
0.0905228 0.583971 0.0705564 0.215995 0.0968124 0.744339 0.0854256 0.108076 0.0969447 
0.17508 0.141986 0.247936 0.0843424 0.321839 0.0806274 0.381219 0.0861661 0.583696 
0.0802094 0.379746 0.0825699 0.322898 0.098696 0.217753 0.107375 0.273831 0.0910007 
0.55345 0.0858206 0.139588 0.125849 0.176664 0.14135 0.496644 0.0843674 0.147492 
0.135457 0.157204 0.136386 0.148878 0.143712 0.581322 0.0896437 0.147881 0.113156 
0.204245 0.145592 0.17287 0.153796 0.269073 0.102537 0.581821 0.0797276 0.152615 
0.137034 0.135224 0.125654 0.201094 0.115438 0.159289 0.146653 0.175292 0.14704 
0.49226 0.0971585 0.169282 0.147769 0.219102 0.18096 0.676387 0.0949021 0.163383 
0.132009 0.17025 0.163073 0.423659 0.0929645 0.584221 0.0855727 0.158853 0.145823 
0.576966 0.0987268 0.218183 0.108031 0.565536 0.0971912 0.180678 0.162713 0.186843 
0.127609 0.541577 0.110618 0.505927 0.0975621 0.168143 0.161259 0.216575 0.155711 
0.151859 0.147477 0.388817 0.107234 0.185499 0.176499 0.19827 0.174812 0.17581 
0.163785 0.140213 0.105518 0.129419 0.122836 0.159669 0.137567 0.185085 0.126536 
0.248643 0.122944 0.164522 0.150465 0.491634 0.0934784 0.246767 0.128026 0.162794 
0.150725 0.168654 0.150007 0.490505 0.0987418 0.186295 0.14394 0.278938 0.110043 
0.201009 0.169188 0.483806 0.110018 0.205016 0.183903 0.165611 0.123899 0.175185 
0.143141 0.170282 0.156967 
