# vtk DataFile Version 4.1
vtk output
ASCII
DATASET POLYDATA
POINTS 1300 float
16125 47875 54078.1 16125 45354.6 51242.2 16558.1 46177.7 51721.1 
19218.8 43492.2 45952.9 17569.2 45157.1 49529.2 13031.2 42779.6 44023.4 
18402.7 43858.4 46609.6 17514.1 41945.3 41703.1 18974 43602 46150 
24375 40822.3 46343.8 13642.9 42842.7 45113 8648.44 38645.3 41187.5 
22322.6 41878.6 46270.1 24375 39156.8 40929.7 18064.9 42267.7 42630.8 
19734.4 40558.3 38867.2 10208.5 39601.9 42994.6 7305.75 34984.4 44281.2 
8987.1 38724.6 41314.9 6275.53 36273.4 36546.9 18966.4 41344.6 40598.4 
15351.6 41230.7 35257.8 23430.9 40408.9 43386.2 29089.9 35242.2 44023.4 
19667.6 40952.1 39064.4 22054.7 40506.7 33968.8 7916.56 35545.3 43793.7 
6070.31 30085.9 43279.9 6547.16 36212 36680.6 4921.5 33953.1 32937.5 
27315.4 36870.1 43127.7 30562.5 33953.1 39217.8 7362.67 33907.5 43639.5 
7617.19 29570.3 49352.9 28681.4 35801.7 40874 28954.8 36531.2 36804.7 
7528.81 34398.8 43685.8 5039.06 32148.4 39172.4 21338.5 40640.4 35497.4 
17929.7 41230.7 30875 6304.2 30359.8 43481.1 5248.41 24671.9 44023.4 
21704.3 40687.1 34221 22570.3 41231.7 29328.1 15858.8 41098.2 37054.9 
9937.5 40000.4 34742.2 5794.15 32286.4 40637.2 4207.87 27507.8 38351.6 
5260.57 33949.4 33695.5 4207.87 29570.3 31132.8 28557.5 35730.5 43754.7 
30820.3 28952.6 43765.6 21949.6 40560.9 34044.4 26437.5 39157.8 34226.6 
13608.7 40681.1 36176 12515.6 41223.4 30875 30128.2 34347.5 39243.1 
32163 32148.4 35257.8 18314.7 41090.1 30901.6 16382.8 41234.8 27007.8 
5732.99 26337.8 44381.7 6070.31 22351.6 47938.1 10586.4 39987.3 34660.1 
7492.41 38593.8 31390.6 29087.6 36334.3 37398.1 30430.5 36531.2 33195.3 
4460.53 29755 31170.4 4207.87 26476.6 29070.3 4769.19 31568.9 31601.2 
4207.87 29828.1 26492.2 30738.6 33687.8 38047.4 31651.5 27765.6 38351.6 
31406.7 32918.6 35879.9 31135.9 32921.9 31132.8 22748 41185.1 29666.7 
24194.5 41687.5 24945.3 16640.1 41188.2 27098.8 15093.8 41233.8 22882.8 
12432.3 40905.8 31488.5 10968.8 40708.8 27007.8 4370.4 27479.7 29191.7 
4736.91 25445.3 24687.5 29735.3 29850.8 44276.1 29531.2 24414.1 45601.2 
31259.1 30384.3 37787.7 31652.5 28281.2 35257.8 29942 36518.6 33680.4 
29531.2 36821 28554.7 4256.65 26777.5 29106.7 4718.35 23382.8 30101.6 
23793.1 41342.4 25678.7 24117.2 40192.2 21078.1 4468.99 25215.9 29564.4 
5444.34 22351.6 26750 5053.6 25663.2 25334.8 6286.88 23898.4 21851.6 
4394.02 29791.5 26674.4 4263.56 28539.1 23398.4 15727.8 41293 23479.7 
16640.6 41745.2 19015.6 29654.5 36730.3 30092.4 27213 40140.6 27523.4 
31339.8 29185.6 35732.1 30626.4 28281.2 30875 31341.8 28104.7 38226.4 
30420.2 23640.6 38867.2 4373.8 29230.1 24148 4724.53 30343.8 20562.5 
15284 41251.6 23061.9 11484.4 40556.2 23398.4 29512 25847.7 44736.1 
28883.6 21062.5 42734.4 6390.21 24105.4 22037.8 7713.09 23125 19531.2 
24085.7 39840.1 21828.4 24375 37620.2 18500 29318.1 24597.4 45441.5 
28067.9 21320.3 47117.2 28820.3 22399.9 44341.3 28179.3 20031.2 44796.9 
30508.5 24550.1 38405.4 29273.4 21527.6 36804.7 30992.4 32740.5 31764.8 
29589 31632.8 26492.2 30954.6 28697.2 33109.3 29789.1 24622.4 31906.2 
4774.03 23446.9 30057.9 5739.28 19257.8 31132.8 29393.6 36690.8 28848.3 
28028.7 36273.4 24171.9 24107.7 40086.6 21303.2 20835.8 40914.1 17726.6 
24195.6 38996.6 20563.6 26456.1 35500 20562.5 5440.63 22619.6 27509.9 
7298.53 18742.2 26750 11407.8 40767.9 28352 7492.41 38593.8 27007.8 
24062.7 38276.1 19098.6 22695.1 38078.1 16437.5 5989.26 24572.7 23026.9 
6070.31 26686.9 19273.4 16204.1 41525.5 19361.3 16125 41477.1 15148.4 
4775.06 30115.2 21025.3 5761.97 30859.4 16953.1 4536.53 30466.9 28546.6 
4705.97 33179.7 25203.1 28371.6 20741.8 44660.2 27210.9 17917.2 41960.9 
5842.31 19469.1 31019.2 6934.5 16421.9 31648.4 29923.3 25548.2 31834 
28500 23376.6 29070.3 6592.54 20215.6 27038.8 8216.35 19515.6 23656.2 
25778.3 36083.1 20382.3 25974.5 32921.9 19273.4 7703.4 23267 19847.1 
10195.3 22248.4 16953.1 23880.9 40891.8 24523.6 21023.4 42260.9 21593.8 
29354.2 21936.2 37381.3 27468.8 18617.4 37835.9 23433.6 38185.1 17874.5 
23601.6 34468.8 15873.4 7309.46 23518.5 20504.3 10280.9 20031.2 20046.9 
28788.6 20940.6 37517.7 27143.9 19000 33968.8 9049.08 22717 18284.4 
9247.59 24671.9 15406.2 28237 20244.4 44755.8 26437.5 16084.7 45570.3 
15150.8 41239.1 22936.5 12515.6 40198.4 19531.2 5640.18 30269.3 18053.5 
7359.38 28505 14632.8 4808.48 32916.5 25997.6 5765.06 36531.2 24429.7 
5834.77 30908.3 17313.6 6795.28 33695.3 14890.6 6881.8 16819.5 31808 
7994.62 14359.4 32937.5 6778.47 29343.9 15649.6 7507.87 30085.9 13343.8 
5095.47 34000.9 25527.2 5224.69 34468.8 21851.6 28703.8 24016.2 29419.5 
27210.9 23757.2 26234.4 6867.06 33315.2 14953 7875 34726.6 13036.4 
5904.38 36209 24545.5 8051.34 39109.4 23140.6 27500.3 18925.7 37822.2 
25148.4 16339.4 38351.6 25689 33703.5 19300.6 24425.5 30601.6 16695.3 
6918.72 16541.2 31696.3 9164.06 15339.1 28812.5 26962 19068.3 34415.6 
25261.9 17453.1 31906.2 9187.99 24085.4 16269.7 11226.6 23640.6 13976.9 
7699.58 38377.2 23159 9679.69 39473.4 20562.5 26436.3 16437.3 45302.7 
24890.6 13778.8 45312.5 6569.95 17614.4 31571.4 6328.12 15333.9 36031.2 
13299.3 40399.1 20004.6 13031.2 39625 16344.7 25771.9 17937.7 32659 
25406.2 18832.9 29328.1 6662.25 15779.1 34506.4 8110.12 12812.5 36289.1 
6586.55 37032.9 24018.7 6585.94 37096.4 20820.3 27505.7 23984.2 26697.3 
26437.5 24879.2 23398.4 28561.1 23568.5 29175.1 26695.3 21178 28296.9 
7967.5 13696.2 35520.7 10710.9 11708 35257.8 24521.9 31403 16929.5 
22677.6 30343.8 13343.8 6454.45 15310 35908.3 6585.94 14304.7 38093.8 
12697.3 39416.4 16979.9 12000 38446.3 14632.8 9887.9 12304.5 35336.7 
11484.4 11770.9 32937.5 24920.3 14144.8 45129.4 22121.7 11265.6 44023.4 
25515.9 18564.4 30327.4 22897.2 17195.3 28039.1 12206.7 38462.4 14777.6 
11742.2 37118 11796.9 6802.71 37216.7 21319.2 8132.81 38078.1 18215.4 
26884 25006.1 24336.5 26956.2 28023.4 21851.6 24454.5 30842 16765.6 
22828.1 26642.6 15406.2 8281.83 13115.2 36160.6 9937.5 11250.2 38609.4 
22692 30525.8 13482.5 21148.2 30085.9 10765.6 26951.5 21699 28209.1 
24926.7 20289.1 25976.6 6550.46 14295 37882.8 6585.94 12296.9 40801.8 
6816.84 33581.3 14909.3 7101.56 36015.6 16555.1 23030.2 27717.1 15376.2 
21134.8 26218.8 12570.3 26923 26635.5 22994.6 24952.5 26476.6 19531.2 
7923.78 37663 18566.4 8906.25 37580 15921.9 6890.88 12743.6 39870.3 
8852.62 10492.2 41445.3 23381.9 17637.1 28151.6 21309.1 17710.9 24429.7 
23042.6 17327.9 28072.8 21023.4 14864.7 29585.9 27269.5 24372.5 25800.2 
28500 28023.4 24939.1 22822.9 26835.3 15535.4 22054.7 24104.7 16437.5 
21349.2 26762 12746.3 19734.4 26446.7 9992.19 22007.5 17269 26577.1 
20250 16258.9 25718.8 21518.6 17578.3 25073.9 22484.7 19515.6 23140.6 
21019.9 15222.6 29309.4 18703.1 13328.1 30327.4 21372 17671.2 24623 
18960.9 17372.7 22882.8 28218 27869.1 24931 28547.4 30601.6 24171.9 
22452.4 19275 23626.5 24117.2 21532.8 22882.8 19696.5 17626.9 23130.9 
18187.5 18442.1 20304.7 19003.8 13683.6 30309.7 16382.8 12213.3 32164.1 
23329.1 20784.8 22820.2 23601.6 23125 20151 18793.3 13434.8 30322.1 
16125 13270.4 28812.5 28258.9 29534.9 24173.4 27498.7 31375 21851.6 
17378.8 12772.1 31459.4 17929.7 11757.5 35000 20777.3 16561.9 25976.3 
18445.3 14552.2 27265.6 22475 19443.4 23286.4 21350.3 20289.1 20820.3 
21564.3 20209.5 21012.7 20507.8 21213.1 17984.4 20544.8 21235.3 18061.5 
19734.4 22152.5 15664.1 16393.5 46822.6 52616.8 18445.3 45109.2 52531.2 
16254.9 45601.5 51385.8 14062.5 45103 49179.7 17265.8 45463.3 50186.8 
20509.9 44265.6 50210.9 14730.4 44232.6 47697.1 12773.4 44113 47375 
18152.7 44248 47485.6 16125 43811.9 45312.5 19904.3 44318 49842.3 
22054.7 43083.8 48921.9 16658.7 43741.1 45358.6 15609.4 43259.1 43507.8 
12521.7 41817.2 44171.9 12257.8 41767.9 42476.6 18615.3 42976.9 44710.7 
20765.6 41539 42992.2 15656.4 43136.7 43666.9 14578.1 42271.2 41960.9 
12241.9 41639.1 42781.2 11484.4 40724.3 40414.1 18623.8 41695.3 41370.8 
20297.4 40914.1 41445.3 14621.1 42312.5 42073.8 13499.4 41429.7 40414.1 
9353.5 38987.8 41818.7 9371.34 39367.2 38609.4 24936.7 39206.2 43622.2 
26695.3 38643.3 45570.3 8888.1 37912.9 42896.9 7457.34 37046.9 41960.9 
24047.9 39495.7 41304.2 23859.4 39163 38867.2 25650.3 38505.4 43473.9 
26301.4 38078.1 41445.3 23976.3 39369.2 40378.2 25457.8 38335.9 39382.8 
19288.9 41164 39892.8 21281.2 40196.3 39898.4 7249.65 36862.5 39421.9 
6070.31 35547.4 39125 26347.7 37946.8 41877.9 27210.9 37121.1 40671.9 
23729.2 39324.2 39300.3 22570.3 39680.7 37320.3 23820.3 39211.4 38997.1 
24632.8 38851.6 37109.9 19369.6 40913.5 33822 16898.4 41230.7 33453.1 
28759.8 35545 43856.8 30046.9 34293.4 42218.8 28668.9 36119.8 39618.5 
27809.1 37046.9 38609.4 17349.1 41145.1 33336.2 15351.6 41230.7 31906.2 
6140.44 30168.1 43340.2 5243.25 28023.4 42218.8 29473.8 33316.4 43607.1 
30820.3 32148.4 42780.8 27841.2 36892.6 38593.5 26695.3 37820.3 37111 
4973.48 32781.9 32400.1 4719.37 32921.9 30875 16086.8 41200.6 32118 
15609.4 41230.7 29843.8 5383.71 28276.6 42216.7 4719.37 26476.6 40929.7 
30421.2 32503.7 42774.8 31335.9 31765.8 40671.9 30939 33457 37397.2 
31078.1 34849.3 35773.4 5231.18 32016.2 39439.8 4523.44 30859.4 37420.3 
5096.71 32108.8 39252.7 4781.25 33255 37320.3 9590.17 39381 39295.5 
10968.8 40197.3 37320.3 16460 41220.9 27035.1 14578.1 41230.7 27781.2 
4849.21 26673.8 41313.3 4365.66 24414.1 41187.5 22623.6 41217.7 29429.7 
19992.2 41687.5 28633.1 25937.9 39301.1 33821.9 28500 38466.9 32937.5 
4661.52 30796.4 37749.8 4207.87 29312.5 36289.1 5743.92 34843.6 35638 
4781.25 33264.2 35515.6 30494.8 29222 43918.8 31593.8 29049.5 41445.3 
22676.3 41455.6 27279.3 22054.7 41750.4 25976.6 5893.45 22875.1 46854.6 
5727.94 20804.7 47117.2 4433.51 29072.4 30576.8 4207.87 26734.4 31390.6 
31936.1 32379.5 35444.4 31655.6 30601.6 33968.8 24347 40040.1 33374.5 
25953.8 40140.6 31906.2 17142.5 41158.8 28239.6 18703.1 41745.2 25976.6 
8164.78 38735.6 32345.6 6328.12 36920 31906.2 4540.97 27753.3 38398.4 
4207.87 25703.1 37320.3 31434.7 28003 38263.9 31273 27250 40156.2 
31722.7 31080.7 34114.5 31593.8 30595.4 32164.1 18761.7 41739.9 26231 
[...]
CELL_DATA 1299
SCALARS radius float
LOOKUP_TABLE default
0.0593486 1.1434 0.0583406 1.1402 0.0672118 0.98269 0.0532772 0.848993 0.0705201 
0.80135 0.063266 0.848728 0.076693 0.691803 0.0657972 0.796867 0.0693899 0.74198 
0.0626231 0.690275 0.0692862 0.84761 0.0719205 0.638877 0.0518636 0.439228 0.0573751 
0.738911 0.0647859 0.838235 0.0628434 0.371449 0.146303 0.787144 0.0604248 0.434568 
0.0609768 0.638645 0.0712161 0.328027 0.124394 0.553362 0.0520826 0.397911 0.0866575 
0.310897 0.104618 0.733814 0.0671101 0.466107 0.0787108 0.220913 0.0947687 0.39136 
0.0751898 0.731889 0.0749721 0.437216 0.0515949 0.271054 0.114807 0.309831 0.0661654 
0.446496 0.0688199 0.610836 0.053956 0.728716 0.0506514 0.730638 0.0680858 0.283058 
0.0948956 0.536665 0.0890819 0.419783 0.0549585 0.293484 0.083071 0.60926 0.0722215 
0.45363 0.0768651 0.711632 0.0818327 0.433194 0.0791664 0.516033 0.0539299 0.524262 
0.0693651 0.514187 0.0760348 0.441388 0.0789163 0.450519 0.0831165 0.393949 0.0812921 
0.377988 0.0970364 0.470385 0.066668 0.63367 0.091738 0.443142 0.0871995 0.356703 
0.142025 0.437398 0.118597 0.38391 0.0882403 0.516101 0.101049 0.250439 0.112403 
0.390925 0.0745137 0.628829 0.0650428 0.243668 0.152694 0.466383 0.0951893 0.453206 
0.0738605 0.305361 0.11383 0.243714 0.142089 0.497309 0.0999038 0.341254 0.0776597 
0.270835 0.174485 0.308135 0.121497 0.433598 0.1149 0.22089 0.181687 0.437852 
0.0878046 0.54181 0.0620671 0.380303 0.151124 0.450215 0.06757 0.446053 0.0722132 
0.296566 0.163011 0.454258 0.0724305 0.35212 0.122805 0.523404 0.128618 0.628177 
0.077595 0.297425 0.0747018 0.382795 0.141198 0.612305 0.0659537 0.338372 0.117762 
0.3601 0.0794926 0.341825 0.0640922 0.433806 0.0850524 0.405795 0.0818687 0.353333 
0.0776572 0.301654 0.0924593 0.334793 0.112364 0.401419 0.105364 0.444603 0.0731259 
0.328595 0.107276 0.359286 0.075287 0.266107 0.0779372 0.452642 0.0821062 0.229841 
0.103714 0.592941 0.0513919 0.29436 0.183919 0.265699 0.16181 0.347303 0.10907 
0.449551 0.0783876 0.338021 0.0957836 0.585589 0.10588 0.398753 0.108926 0.357863 
0.103012 0.428428 0.115303 0.209895 0.0897054 0.290681 0.125378 0.447156 0.0979622 
0.332276 0.0890013 0.315783 0.11456 0.253642 0.195288 0.326277 0.159243 0.579228 
0.0740013 0.227871 0.217779 0.30027 0.122526 0.375387 0.12344 0.396258 0.0959176 
0.202008 0.190846 0.243545 0.16046 0.207006 0.169627 0.330816 0.150411 0.178862 
0.173843 0.375 0.137026 0.364754 0.0901601 0.271578 0.103571 0.316287 0.123384 
0.576641 0.0818225 0.396045 0.0983294 0.418602 0.0754526 0.260822 0.166258 0.273871 
0.184673 0.504032 0.0865793 0.480592 0.0807739 0.390066 0.0816887 0.24254 0.133512 
0.273474 0.147366 0.455165 0.113677 0.239395 0.190006 0.38309 0.102783 0.309185 
0.185493 0.273274 0.172026 0.253868 0.187065 0.316719 0.139915 0.257363 0.168123 
0.39587 0.103696 0.369865 0.0739808 0.272857 0.230084 1.14363 0.0956425 0.147176 
0.10419 1.14259 0.0793754 0.80232 0.0912756 0.988319 0.0482579 0.201088 0.08773 
0.254069 0.060666 0.799907 0.0651911 0.695402 0.0487039 0.24272 0.0602926 0.174706 
0.0611983 0.690825 0.0923291 0.226788 0.0977059 0.746027 0.0697157 0.841694 0.102648 
0.449468 0.0792702 0.228875 0.0634728 0.841185 0.0609453 0.221073 0.109043 0.641654 
0.0862902 0.741827 0.0629822 0.175179 0.0850603 0.211851 0.103456 0.129146 0.123819 
0.449856 0.0791853 0.117731 0.108003 0.455068 0.0589343 0.186973 0.101363 0.248696 
0.0614963 0.46359 0.0811768 0.173533 0.0703869 0.731931 0.0552941 0.182113 0.0959987 
0.238157 0.103458 0.176007 0.0935385 0.309523 0.0542501 0.241357 0.073018 0.164657 
0.129123 0.188713 0.0643407 0.209759 0.0920428 0.209248 0.120325 0.165794 0.0628097 
0.18424 0.120929 0.212499 0.14774 0.73684 0.0821904 0.185406 0.0820146 0.529057 
0.0712169 0.253089 0.16207 0.610566 0.113376 0.195096 0.0951533 0.219956 0.080881 
0.436585 0.0618863 0.303585 0.120647 0.21174 0.14329 0.163351 0.0912419 0.177028 
0.132197 0.209862 0.116941 0.175471 0.153748 0.144774 0.106223 0.446043 0.109038 
0.277602 0.072589 0.244292 0.106473 0.281342 0.0806103 0.430055 0.0565409 0.180886 
0.118004 0.23096 0.108794 0.226407 0.0891617 0.239046 0.0995602 0.294464 0.0993931 
0.172621 0.123992 0.189582 0.153426 0.450906 0.104736 0.164768 0.0804858 0.155542 
0.122911 0.237344 0.115342 0.283104 0.108091 0.452952 0.118747 0.205262 0.0983004 
0.399565 0.112521 0.243287 0.153574 0.278778 0.105015 0.630031 0.112625 0.263616 
0.0625864 0.436696 0.117979 0.232828 0.0968511 0.217165 0.132344 0.251698 0.124946 
0.288994 0.140277 0.256765 0.115897 0.254193 0.123928 0.282983 0.0934456 0.265082 
0.130876 0.240985 0.144689 0.290507 0.132687 0.24864 0.0846865 0.224188 0.150643 
0.168692 0.156739 0.249576 0.195002 0.126434 0.120143 0.231666 0.158284 0.198476 
0.15392 0.59416 0.1088 0.203824 0.178135 0.247311 0.0989318 0.202094 0.187775 
0.248294 0.114502 0.258016 0.108722 0.20865 0.189133 0.257475 0.0994324 0.192489 
0.148558 0.243956 0.115052 0.185986 0.170221 0.174219 0.132616 0.207033 0.169135 
0.25454 0.103636 0.273493 0.116684 0.227877 0.171444 0.172713 0.152589 0.309884 
0.0957599 0.189398 0.178405 0.231083 0.17913 0.246236 0.0788344 0.162106 0.156501 
0.288647 0.155125 0.222055 0.179671 0.172343 0.143916 0.155943 0.148729 0.248374 
0.083798 0.328654 0.156847 0.306449 0.152755 0.172003 0.167172 0.282141 0.132276 
0.291388 0.193876 0.304516 0.176305 0.327079 0.116891 0.326783 0.126591 0.209437 
0.19652 0.291778 0.0940561 0.256424 0.18208 0.215842 0.200225 0.230801 0.0662141 
0.224665 0.164853 0.329622 0.159312 0.389224 0.12897 0.236102 0.187722 0.28247 
0.194317 0.149343 0.143433 0.349827 0.127444 0.226666 0.182924 0.367128 0.0848021 
0.262086 0.21559 0.210689 0.0864565 0.802571 0.0786405 0.801637 0.0821312 0.196877 
0.085701 0.161563 0.0982186 0.164995 0.10447 0.692292 0.0889282 0.171627 0.104487 
0.149652 0.0794969 0.124 0.115876 0.842011 0.0876256 0.225359 0.0879039 0.12447 
0.116705 0.739884 0.0908345 0.167078 0.0876523 0.838645 0.0952807 0.401495 0.0575236 
0.125814 0.110494 0.11976 0.115162 0.147343 0.109942 0.128632 0.121548 0.194465 
0.055131 0.738762 0.0842937 0.336014 0.0898741 0.18417 0.1447 0.732384 0.0926784 
0.163192 0.0942901 0.32332 0.0716914 0.731143 0.0931794 0.143145 0.0801945 0.171237 
0.0962069 0.13564 0.127455 0.393379 0.0977029 0.168595 0.127331 0.171513 0.0926505 
0.441537 0.099115 0.15948 0.125203 0.185382 0.138256 0.148033 0.135069 0.180551 
0.143471 0.123199 0.117448 0.208713 0.0811242 0.200453 0.184813 0.24321 0.134968 
0.191333 0.113356 0.130851 0.126064 0.28349 0.12119 0.158598 0.0935774 0.113678 
0.109472 0.164094 0.0523006 0.63458 0.103163 0.148651 0.13553 0.178738 0.158131 
0.349955 0.113639 0.140085 0.113253 0.159309 0.120195 0.204955 0.155027 0.222708 
0.163905 0.222616 0.165338 0.401545 0.0866338 0.153334 0.143498 0.345914 0.118175 
0.30155 0.110172 0.160006 0.152908 0.178827 0.118804 0.217417 0.127095 0.241827 
0.114997 0.274501 0.0935066 0.26075 0.12126 0.168454 0.161892 0.294458 0.102573 
0.202539 0.114125 0.240807 0.104486 0.299249 0.138587 0.23235 0.13866 0.195365 
0.146201 0.180163 0.109616 0.159293 0.140593 0.350263 0.126069 0.231354 0.0883506 
0.198943 0.151805 0.59507 0.0988544 0.221374 0.21658 0.254989 0.154361 0.197723 
0.104423 0.238773 0.145345 0.231943 0.15312 0.234536 0.176688 0.182536 0.149207 
0.351516 0.125112 0.128833 0.12384 0.177249 0.14786 0.306352 0.148062 0.191365 
0.153111 0.359033 0.0786982 0.258391 0.152101 0.156778 0.153123 0.591019 0.116121 
0.346151 0.121501 0.181675 0.161377 0.187501 0.177674 0.222603 0.195845 0.203913 
0.193041 0.178719 0.164776 0.267019 0.112255 0.254343 0.160231 0.196315 0.188406 
0.20436 0.192382 0.195651 0.148168 0.589521 0.107951 0.159689 0.141183 0.33649 
0.149849 0.322163 0.167008 0.39508 0.0856197 0.300694 0.132082 0.226607 0.170075 
0.169815 0.136881 0.254497 0.233619 0.20749 0.138129 0.200116 0.178626 0.296173 
0.122314 0.18868 0.183001 0.276663 0.240376 0.205655 0.153392 0.28888 0.160435 
0.247086 0.222098 0.255033 0.245018 0.262997 0.188367 0.261923 0.22683 0.225765 
0.218252 0.159936 0.15413 0.208182 0.201575 0.31834 0.139319 0.225497 0.114534 
0.215424 0.204041 0.262511 0.131387 0.209781 0.201212 0.22707 0.211343 0.247717 
0.231843 0.201113 0.197719 1.14379 0.0867658 0.143886 0.0796439 0.20572 0.0831572 
0.150574 0.0972617 0.104832 0.101306 0.800217 0.0841484 0.247975 0.0982726 0.129636 
0.0706304 0.12331 0.115044 0.111907 0.107727 0.147912 0.139823 0.225968 0.0901906 
0.24145 0.0635664 0.181421 0.113562 0.640037 0.0750613 0.174263 0.156424 0.739428 
0.0945835 0.160905 0.0954675 0.346124 0.086073 0.146394 0.0977483 0.152241 0.100743 
0.161821 0.127745 0.313521 0.0915444 0.130127 0.11707 0.147621 0.145012 0.158566 
0.0883543 0.176322 0.132955 0.169951 0.0548736 0.247674 0.118998 0.163286 0.0877184 
0.120749 0.116982 0.251935 0.117069 0.454974 0.0940471 0.161193 0.152023 0.262023 
0.121147 0.538829 0.0807009 0.228481 0.134524 0.146603 0.132618 0.531338 0.0685011 
0.296792 0.0952666 0.286507 0.0943156 0.443062 0.0992472 0.170052 0.120888 0.439866 
0.0745098 0.163712 0.123211 0.124378 0.117026 0.228653 0.176954 0.218566 0.169853 
0.441396 0.0830105 0.120606 0.112619 0.202859 0.175506 0.132302 0.120364 0.140313 
0.116075 0.162469 0.121916 0.148633 0.115657 0.187981 0.175826 0.202149 0.143394 
0.250682 0.110616 0.201852 0.135781 0.248002 0.108844 0.213763 0.10384 0.393631 
0.107699 0.218574 0.136948 0.125507 0.118894 0.156961 0.115553 0.143069 0.12118 
0.193168 0.123777 0.219272 0.138199 0.191804 0.152662 0.191134 0.163154 0.185991 
0.15561 0.26229 0.103736 0.304469 0.124161 0.191135 0.108118 0.174477 0.157229 
0.174504 0.158699 0.18825 0.123216 0.182814 0.170644 0.175935 0.13717 0.34135 
0.104848 0.169353 0.149937 0.344732 0.130567 0.135294 0.132637 0.229483 0.187285 
0.215375 0.139691 0.221702 0.160711 0.205319 0.165152 0.266598 0.121003 0.193646 
0.182943 0.162302 0.12902 0.207142 0.180277 0.238944 0.183977 0.19047 0.148329 
0.263889 0.0821619 0.201147 0.175576 0.15921 0.148053 0.153659 0.141091 0.151055 
0.142475 0.29895 0.129195 0.163735 0.157435 0.58057 0.11061 0.263545 0.121934 
0.238407 0.132282 0.158484 0.151934 0.193105 0.169689 0.185176 0.169 0.17268 
0.16702 0.219 0.207349 0.12883 0.126044 0.158606 0.148397 0.578047 0.112021 
0.242208 0.137022 0.246977 0.147862 0.207002 0.19037 0.167842 0.134332 0.202512 
0.178316 0.178812 0.156546 0.181201 0.160307 0.506087 0.116303 0.371725 0.141549 
0.238142 0.210851 0.283384 0.183411 0.295505 0.17394 0.230616 0.18399 0.387972 
0.1296 0.45905 0.13454 0.395182 0.133253 0.176781 0.173629 0.394746 0.136537 
0.203021 0.183934 0.19985 0.194624 0.270819 0.124782 0.245365 0.150948 0.199293 
0.180139 0.234098 0.210968 0.315752 0.0813705 0.22351 0.219855 0.122713 0.110321 
0.140685 0.123078 0.801926 0.0822414 0.848901 0.0721294 0.695907 0.0901674 0.152434 
0.137409 0.797119 0.0783149 0.847844 0.0796251 0.157603 0.115285 0.176239 0.11457 
0.165599 0.144821 0.134103 0.129162 0.440088 0.0793217 0.111576 0.105152 0.441637 
0.0966493 0.112482 0.100008 0.138696 0.0724378 0.132646 0.125015 0.15172 0.1379 
0.213882 0.0762236 0.142454 0.123165 0.132335 0.123304 0.732776 0.0857874 0.138238 
0.124197 0.149947 0.138932 0.195453 0.125674 0.106198 0.098288 0.541368 0.0870319 
0.160227 0.148507 0.130481 0.116033 0.111353 0.106609 0.123355 0.11056 0.139724 
0.13502 0.139462 0.129995 0.164063 0.124802 0.438821 0.0973929 0.181526 0.149464 
0.18307 0.10292 0.13356 0.129131 0.170979 0.16023 0.167177 0.1558 0.135216 
0.130538 0.307554 0.103604 0.248002 0.0922776 0.154497 0.119932 0.275906 0.10437 
0.143136 0.133531 0.635214 0.0915053 0.156243 0.0928522 0.191315 0.122769 0.11856 
0.103805 0.467861 0.0988965 0.150377 0.137506 0.167344 0.133439 0.169661 0.163364 
0.190714 0.164277 0.228179 0.117034 0.439215 0.0923175 0.131864 0.119783 0.303577 
0.10566 0.147397 0.141278 0.186746 0.179709 0.132459 0.128932 0.136033 0.125743 
0.38307 0.10654 0.152254 0.12301 0.407388 0.0924541 0.168719 0.124592 0.16055 
0.145167 0.239078 0.137846 
