# vtk DataFile Version 4.1
vtk output
ASCII
DATASET POLYDATA
POINTS 1300 float
16125 47875 54078.1 14835.9 45358.8 52015.6 15325.8 46314.9 52799.4 
19476.6 43820.1 47375 14982.9 45645.6 52250.8 12000 42777.5 45054.7 
18182.2 44231.3 48153.8 18236 41945.3 42476.6 12700.4 42826.6 45300.7 
11608.1 40914.1 40671.9 19088.2 43943.5 47608.7 25782.7 39625 46085.9 
22703.2 41611.5 46786.4 23601.6 39185.7 40156.2 12372.8 42252.8 43912.1 
7617.19 36531.2 43609.9 11837.5 41315.7 41643.9 16125 41225.5 37062.5 
9424.35 38705.4 43724.8 6585.94 36584.9 36804.7 25338.9 39692.1 46022.4 
28551.6 36273.4 44281.2 23070.3 39983.2 41260.6 21539.1 40203.5 35257.8 
8430.53 36969.2 43906.8 6843.75 31739 45312.5 27564.3 37342.5 44277 
29531.2 35362.8 39898.4 7827.56 34981.7 44441 5727.94 32148.4 40929.7 
6747.12 36212.6 37454.9 4728.66 33437.5 33195.3 14967.4 41250.6 37505.4 
16125 41230.7 31390.6 6366.39 32526.5 42249.6 5039.06 27765.6 41579.4 
28941.2 35956.7 41212 27210.9 37644 36804.7 28255.4 36594.2 44280 
31078.1 31117.2 43513 22024.7 40287.8 36084.5 22054.7 41230.7 29585.9 
28006.8 36867.8 38832 30562.5 35876.4 35000 6634.3 36473.2 36999.8 
9937.5 40000.4 34742.2 5437.23 29193.9 41780.5 5812.5 24445 46085.9 
5200.76 33645.4 34020.6 4207.87 29570.3 30875 15155.3 41238 32028.9 
14835.9 41230.7 27523.4 5891.8 32010.5 41167 4207.87 29570.3 37062.5 
4585.21 31118.8 32070.3 4207.87 31632.8 28039.1 30198.4 32817.6 43170.9 
31851.6 29570.3 39151.8 27625.4 37521.3 37062.9 27726.6 39151.7 32421.9 
7889.54 37813.5 36141.9 7498.6 38593.8 32164.1 30814.2 31627.3 43410.4 
30121.1 26992.2 44539.1 31247.2 30887.3 39868.9 31668 30859.4 34226.6 
22336.2 41149.9 29846.2 23085.9 41750.4 24945.3 5722.47 24926.4 46026.3 
5812.5 22093.8 49563.3 4372.15 29694.8 30919.8 4222.31 25703.1 27523.4 
14982.8 41234.1 29595.9 11742.2 40719.2 28039.1 14779.1 41229.7 27599.1 
14062.5 41215.2 22882.8 4328.63 31179.6 28390.6 4207.87 30601.6 24687.5 
22801.1 41522.2 26807.7 19218.8 42203.1 24200.7 4870.25 33499.9 33442.9 
5296.88 35321.6 30359.4 4403.09 26744.8 27899 5224.69 25445.3 23656.2 
31670.3 29965.4 39366.9 31078.1 25441.2 39898.4 30105.6 27374.4 44033.5 
29273.4 23060 44023.4 31440.8 30874.5 37273.5 31137.9 26476.6 35000 
31467.6 30504.9 35139.7 30934.8 28281.2 31390.6 27696.2 38662.5 33814.2 
29577.7 35500 27523.4 22475.7 41261.6 28934.7 26301.4 40656.2 27523.4 
23929.4 41031.5 28398.4 26179.7 40211.8 30359.4 23000.5 41681.9 25504 
25423.8 38335.9 20820.3 4276.56 26015.6 27636.1 5954.81 21062.5 26750 
20077.7 42027.4 24395.3 18445.3 42260.9 20562.5 24063.8 40027.4 22617.7 
23153 40140.6 19273.4 5329.15 25471.3 24260.4 7555.31 23125 19789.1 
18482.4 42081.4 21380.8 15561.9 41429.7 19015.6 4444.76 30688.4 24869.4 
4881.28 30085.9 20046.9 7477.56 38199.7 32426.3 6976.78 38078.1 28554.7 
5317.09 22944.7 27086.7 5554.69 19980.7 30359.4 31031.8 26230.2 39502.2 
29605.5 22351.6 38093.8 29523.1 24354.3 44026.4 28041.1 21320.3 48406.2 
5996.99 24767.4 22919 5767.13 26218.8 20304.7 29073.7 35740.3 29149.8 
29606.5 31117.2 27007.8 30280.6 24121.6 38338.5 30046.9 23081.7 35515.6 
5763.51 21627.1 26851 7359.38 20266.4 23914.1 29348.3 23448.3 44024.4 
27877.1 19000 42476.6 29751.7 22896.1 37910.2 28576.3 20804.7 36031.2 
25021 38386.6 21232.9 25946.6 34468.8 19273.4 28436.2 20690.4 43064.7 
27468.8 18147.2 45570.3 16896.6 41716.6 19491.2 16125 41477.1 15148.4 
30741.8 28309.6 31844 29789.1 26476.6 29796.3 23390.2 39704 19967.9 
22570.3 37304.7 15873.4 5219.12 30397.6 20423.5 6070.31 30297.3 16695.3 
6955.44 37935.4 28927.4 6328.12 37429.5 25460.9 29873.6 26574.5 30283.6 
28555.7 23640.6 29328.1 5665.03 20246.7 29764.5 6801.47 16164.1 32421.9 
7460.85 23604.6 20128.8 9885.94 23382.8 16179.7 6970.39 38035.3 28666.5 
8906.25 39681.7 26492.2 29929.5 23152 35939.2 28757.8 21578.1 33097.3 
6625.23 20892.3 25265.1 8906.25 17289.2 25718.8 25298.7 37211.2 20645 
27468.8 34984.4 22292.9 7383.71 20416.5 24098.2 9368.25 19773.4 21851.6 
28666.4 20998.9 36466.4 26953.1 18158.5 35515.6 4400.62 30875.1 26207.4 
4781.25 34289.3 23656.2 5814.98 30327.4 17813.8 7617.19 26686.9 16179.7 
13895 41075 23867.5 11484.4 40186 20820.3 5993.69 30306.4 17030.9 
6782.91 33179.7 14890.6 9253.47 19949.5 21920.8 11226.6 19667.2 19531.2 
25676.4 34776.1 19463.3 25266 31375 17984.4 6047.31 30300.1 16796 
7359.38 29570.3 13994.5 27467.1 19010.6 35800.9 25921.9 16662.2 38351.6 
6370.41 18500.6 30420.9 8511.28 15648.4 29328.1 27826.9 19607.1 36000.5 
26314.8 18742.2 31906.2 6915.63 16397.8 32134.3 8448.38 13328.1 34226.6 
27554.7 18572.7 44657.2 25664.1 14828.6 45312.5 9254.3 23886.9 16649.4 
10401.6 24929.7 13343.8 28825.9 24714.6 29269.8 26437.5 22301 25976.6 
22832.1 37338.9 16733.1 22859.1 32921.9 14117.2 6908.31 32732.9 14998 
8132.81 34867.8 12828.1 6841.38 37882.2 26554.5 8067.84 39109.4 22625 
25187.8 32221.1 18094.9 23916.1 30859.4 15921.9 15916.2 41310.2 18971.4 
12468.2 39367.2 16695.3 7601.82 38643 24118.2 6277.59 36789.1 21335.9 
7215.93 29839.5 14262.7 8865 30085.9 10507.8 7743.31 14740.2 33264.1 
6843.75 14461.5 36289.1 27727.7 23863.9 27468.6 26953.1 24671.9 24637 
25911 16900 37896.3 24117.2 14827.6 39640.6 26859.6 18858.4 34174.8 
24697.8 16421.9 33195.3 26270 18602.4 32506.6 24632.8 17453.1 30523.3 
8482.3 13578.5 34142.4 10453.1 11586.3 36031.2 8090.94 34530.2 13269.6 
10195.3 36573.5 11796.9 25813.6 15478.7 44919 23085.9 12251.5 43765.6 
24966.6 17835.6 30718.2 23859.4 17968.8 28090.6 23975.8 30970.9 15972.2 
22312.5 29312.5 12997.3 6780.85 37493.6 22393.2 7875 38078.1 19438.4 
27126.2 24736.1 25083.7 26695.3 26689 22367.2 6424.65 36862.2 21381.1 
6070.31 35550.5 19015.6 7104.24 14341.9 35869.4 6969.56 13070.3 39125 
9861.91 12184 35464.6 9537.38 11523.4 38609.4 6274.29 35933.7 19322.4 
6843.75 35757.8 16644.8 23934 30892.8 15936.9 23085.9 26734.4 15871.3 
23876.8 17824.5 28540.2 21848.4 17195.3 26234.4 23062.3 12533.4 44042.4 
20663.5 10492.2 43765.6 26629.6 25889.6 22993.1 25148.4 25860.9 20046.9 
23152.8 28045.5 15540.4 21443.2 25703.1 13343.8 22525 29796.4 13343.6 
20622.3 29570.3 9734.38 6672.87 35810.6 17448.1 9374.44 37820.3 16179.7 
9562.64 11279.8 38289.9 9164.06 9709.47 41960.9 24732.9 17567.9 30581.8 
20765.6 14815.2 29585.9 27354.8 24404.7 25990 28500 28015.2 24945.3 
22939.5 26993 15745.7 21796.9 23805.6 16179.7 21497.5 29674.3 11394.7 
19752.9 26218.8 10250 22456.9 17384.1 26926.1 22570.3 18989.7 23914.1 
21875.4 17268.1 26317.7 19476.6 16920 23914.1 21293 15059.5 30185.9 
19248.7 13328.1 30875 28297.3 27844.8 25123.8 28757.8 30501.5 24687.5 
22678.4 19056.3 24274.4 23085.9 21062.5 21758.8 19871.6 17154.9 24129.9 
17671.9 17926.5 20820.3 19369.8 13687.3 30652.8 16171.4 12554.7 30617.2 
28582.8 29492 24853.3 27468.8 30859.4 21786.6 18154.4 13256.9 30639.3 
16898.4 11779.2 33195.3 22602.7 19009.7 24022.2 20765.6 19133 21593.8 
20408.4 14428.3 30400.7 17671.9 14160.3 27781.2 22139.7 24761.8 16049.5 
22570.3 22712.5 19015.6 17482.4 12292.4 32661.6 17929.7 11751.3 35773.4 
22237.5 22978.9 18287 21023.4 20663.4 19531.2 21710.4 24021.8 16227.6 
19734.4 21320.3 17070.7 19861.4 21663 17201.1 17929.7 19456.8 18500 
15678 44001.2 50091.4 18445.3 45325.8 52789.1 17135.1 45142.6 50475.5 
19476.6 44340.9 50468.8 14610.5 44735.4 49145.3 15609.4 44811.2 47117.2 
19072.3 44474.7 50326.2 21104.9 43750 49437.5 15375.8 44648.3 47339.9 
15867.2 43794.3 44796.9 20172.7 43243.9 47362 20765.6 42261.9 44796.9 
15554 43948.7 45339.1 14578.1 43249.8 43765.6 22393.2 41169.8 44502.4 
21281.2 41429.7 43365.5 17662.9 42348.7 43235.7 16898.4 41762.8 41445.3 
14804.5 43292 43865.7 14313.1 42203.1 41445.3 11676.9 41034.5 40963.5 
9679.69 39675.5 39898.4 18206 41974.4 42586.4 19781.8 40914.1 40929.7 
19183 41317 41559.3 18445.3 40739.8 39382.8 8483.85 38135.1 40043 
8523.66 38593.8 38093.8 23357.2 39552.5 40664.2 25148.4 38649.4 40929.7 
24467.8 38992.6 40828.8 25686.8 39109.4 43507.8 18891.2 40894.1 39891.9 
19785.9 40398.4 37578.1 7389.18 34245.2 43783.6 6585.94 34867.8 42218.8 
7962.76 37558.3 39266.6 6466.31 36015.6 39898.4 27868 36943.6 42676.4 
27468.8 37105.7 41187.5 5777.13 32107.1 41000.8 5612.44 33953.1 39640.6 
27335.3 37607.2 36882.1 24632.8 38670.1 37578.1 6999.47 32241.6 44744.9 
6275.53 29828.1 44281.2 6890.47 31889.8 45142.2 7359.38 31375 47691.6 
21684.8 40228.8 35505.8 19476.6 40715 34484.4 29496.4 34691.8 42964.8 
30238.7 33953.1 41703.1 25443.5 38351.2 37369.3 24117.2 39670.4 35515.6 
15023.8 41246.8 35862.5 12515.6 40978 34226.6 7268.83 31261.3 47235.9 
7617.19 29570.3 49352.9 30692.8 32192.7 41484.9 31108 33179.7 39382.8 
15834.1 41232.8 31582.1 18445.3 41230.7 32164.1 24547.5 39344 35734 
24632.8 39882.8 33500.6 28773.5 36570.4 37682.5 30410.9 34726.6 37578.1 
13449.7 41034.8 35146.6 11484.4 40558.3 35773.4 5317.81 28765.4 41720.1 
4265.62 28029.6 39382.8 5386.59 31278.5 39935.7 4736.91 32406.2 38351.6 
16037.7 41231.3 31448.1 18445.3 41231.7 29328.1 30141.9 35043.9 37389.7 
31647.4 33437.5 36031.2 5071.86 27834.6 41549 4417.22 25187.5 40929.7 
9420.64 39437.8 34831.3 10195.3 40199.4 32679.7 14811.9 41239.7 33281.3 
13031.2 41228.6 31390.6 12074 40701.2 35585.4 11484.4 40516 37835.9 
4982.03 32318.3 38670.9 5235 33953.1 37578.1 5078.15 32939.5 38255.7 
4728.66 32921.9 36546.9 30998.9 31270.2 43482.1 31335.9 29570.3 41753.7 
31121.2 33999.8 36218 31652.5 33437.5 33968.8 30015.4 36191.6 35471.6 
30104.6 36789.1 33195.3 4257.17 29607.7 30888.4 4207.87 27250 31648.4 
5747.53 23584.5 47134 5727.94 20804.7 47117.2 10164 40098.7 32718.5 
10968.8 40709.9 30359.4 17530.5 41303.5 29709.2 17929.7 41745.2 26750 
4541.59 28047 39725.2 4207.87 26734.4 37320.3 31508.2 33408.8 34359.5 
31646.3 32148.4 32421.9 31604.9 32526.6 33003.2 31128.7 33437.5 30875 
7147.25 37517.2 33690.9 6328.12 36914.9 32164.1 4221.18 27561.7 31298.9 
4207.87 24929.7 30617.2 10727.3 40526.5 31067.1 9600.28 40140.6 28812.5 
4364.94 27920.2 28615 4207.87 27765.6 25460.9 31207.4 27676.4 35112.5 
31126.6 26992.2 33453.1 31256.6 29932.9 33478 31335.9 30343.8 32030 
[...]
CELL_DATA 1299
SCALARS radius float
LOOKUP_TABLE default
0.106835 1.14924 0.0635923 0.866237 0.0722782 0.951955 0.0533081 0.860169 0.0646857 
0.943007 0.0651981 0.94091 0.0764427 0.859118 0.074854 0.491025 0.0903086 0.800554 
0.0583859 0.809272 0.0662232 0.669224 0.0651456 0.442929 0.0687266 0.80838 0.0795059 
0.435895 0.0532092 0.750494 0.0656231 0.484931 0.054805 0.40854 0.0576527 0.485298 
0.0428941 0.743464 0.057395 0.663185 0.0529582 0.479443 0.0595701 0.428251 0.0881671 
0.343998 0.0838064 0.698805 0.045493 0.454099 0.0562596 0.298142 0.130448 0.692659 
0.0651308 0.742109 0.055549 0.427007 0.103423 0.427889 0.0604312 0.425306 0.0811859 
0.691467 0.0906428 0.657502 0.0618389 0.251325 0.180443 0.621843 0.0719204 0.411554 
0.0922793 0.371754 0.106144 0.45 0.0566578 0.635069 0.0728563 0.207431 0.0975329 
0.610334 0.068815 0.593144 0.0869299 0.415076 0.0775377 0.495872 0.110705 0.474384 
0.0462708 0.397871 0.0864428 0.654275 0.0728524 0.28824 0.0789071 0.58761 0.0849596 
0.528838 0.069577 0.37619 0.0584623 0.578938 0.0704538 0.422473 0.0780176 0.360416 
0.0919173 0.435656 0.0736644 0.391669 0.0598175 0.526822 0.0935621 0.588843 0.0544048 
0.412278 0.113483 0.372173 0.104465 0.376347 0.12994 0.588211 0.080628 0.32981 
0.0816163 0.371038 0.0806217 0.565086 0.0469524 0.528711 0.0839708 0.364076 0.113027 
0.32734 0.127216 0.47166 0.0837754 0.352695 0.087591 0.430517 0.0652276 0.386346 
0.0865526 0.462303 0.0798524 0.477002 0.0706539 0.352333 0.113913 0.141148 0.137472 
0.284682 0.0718522 0.313275 0.148417 0.522835 0.0960865 0.253871 0.0970168 0.562223 
0.10104 0.444582 0.120414 0.419954 0.161778 0.358747 0.0668328 0.411794 0.105622 
0.240378 0.180809 0.509169 0.102806 0.309052 0.105079 0.24861 0.100488 0.473335 
0.120056 0.556898 0.0619312 0.447595 0.0898492 0.334457 0.0768103 0.268186 0.197651 
0.453766 0.0927186 0.329073 0.101072 0.325536 0.0999724 0.377301 0.124391 0.504551 
0.050303 0.268914 0.152418 0.358963 0.0604871 0.259874 0.186185 0.436876 0.113356 
0.448864 0.0746727 0.229035 0.119394 0.539867 0.113437 0.531756 0.0678692 0.373523 
0.116296 0.310689 0.145862 0.330098 0.127097 0.524924 0.0920148 0.503124 0.110964 
0.346157 0.134333 0.370673 0.0900392 0.314631 0.114937 0.292564 0.118199 0.351341 
0.130304 0.304154 0.141045 0.457201 0.0703783 0.451454 0.0701098 0.27144 0.208831 
0.361152 0.107951 0.456998 0.127811 0.309128 0.159824 0.298582 0.181624 0.285098 
0.231383 0.374751 0.0883774 0.432398 0.0961498 0.424762 0.0963073 0.304287 0.185305 
0.445942 0.0765446 0.311896 0.119197 0.374008 0.104986 0.306045 0.139642 0.331235 
0.174094 0.272689 0.203745 0.324276 0.164726 0.302848 0.139148 0.290894 0.129348 
0.314359 0.078687 0.364663 0.149598 0.384469 0.0649698 0.272098 0.212072 0.311547 
0.198991 0.298481 0.137641 0.24835 0.233372 0.174163 0.124539 0.953866 0.071802 
0.86359 0.049964 0.145087 0.0841788 0.187448 0.0865004 0.942911 0.0885539 0.164697 
0.0819658 0.670402 0.0679589 0.28252 0.0853179 0.156325 0.14842 0.142807 0.0970043 
0.264876 0.060301 0.264154 0.0656759 0.752169 0.097566 0.189372 0.0671502 0.185126 
0.110668 0.252716 0.0994942 0.41625 0.0974203 0.751622 0.0979214 0.489538 0.0651605 
0.180054 0.068358 0.245932 0.0981031 0.220365 0.12012 0.195268 0.0963532 0.159618 
0.0979983 0.742605 0.0935886 0.219201 0.0862288 0.482199 0.0554259 0.192387 0.146642 
0.692273 0.104982 0.284827 0.0721954 0.212445 0.118419 0.31863 0.0806555 0.233192 
0.0944475 0.27232 0.0704796 0.261491 0.0879403 0.252448 0.0817199 0.256153 0.0788958 
0.179212 0.1142 0.252167 0.060412 0.456562 0.115283 0.191916 0.126451 0.235864 
0.121804 0.231716 0.0884245 0.14365 0.094212 0.25346 0.0777972 0.235663 0.0717932 
0.179099 0.0860409 0.226632 0.179309 0.248522 0.0898023 0.251584 0.0842817 0.243507 
0.119813 0.224301 0.130374 0.198041 0.177064 0.396442 0.104563 0.178116 0.107963 
0.247326 0.103229 0.613616 0.0982464 0.235951 0.0850674 0.473278 0.102716 0.201241 
0.116617 0.263671 0.100472 0.250918 0.0807481 0.259848 0.0711217 0.14331 0.136737 
0.205219 0.0977736 0.479635 0.121803 0.582577 0.104555 0.189956 0.13071 0.409264 
0.0657528 0.245955 0.0895468 0.15491 0.140655 0.27433 0.11562 0.257211 0.12882 
0.257126 0.0741328 0.175202 0.15594 0.18202 0.0977017 0.188679 0.134673 0.227531 
0.146231 0.345697 0.126765 0.172462 0.0869475 0.297614 0.11453 0.212399 0.122418 
0.206832 0.152085 0.218049 0.126664 0.461384 0.118055 0.22388 0.126669 0.368069 
0.109961 0.196581 0.18266 0.357952 0.128591 0.250018 0.110176 0.233498 0.162558 
0.220677 0.14792 0.21099 0.132127 0.168602 0.160512 0.188434 0.169342 0.319179 
0.11708 0.369126 0.11491 0.282509 0.109848 0.200593 0.181839 0.1908 0.154359 
0.458793 0.100307 0.30808 0.0730376 0.311681 0.096889 0.146428 0.128672 0.261925 
0.0777226 0.165265 0.153639 0.226958 0.165061 0.285243 0.148496 0.147257 0.0926972 
0.442979 0.152452 0.238156 0.138926 0.242918 0.13238 0.353913 0.141797 0.26011 
0.101933 0.243864 0.130606 0.315043 0.144869 0.304482 0.147159 0.363751 0.123326 
0.224408 0.18949 0.233751 0.158157 0.371782 0.136542 0.265286 0.0924742 0.156388 
0.150494 0.257776 0.11728 0.251824 0.133671 0.247327 0.177528 0.212044 0.206012 
0.28587 0.206596 0.252349 0.137546 0.208851 0.151157 0.296928 0.149087 0.203117 
0.170152 0.450176 0.136623 0.270929 0.206389 0.288816 0.173802 0.251426 0.115001 
0.195564 0.141004 0.31485 0.132915 0.410468 0.09238 0.230998 0.162679 0.255705 
0.22055 0.322749 0.148561 0.292027 0.18212 0.300826 0.127504 0.380438 0.0954629 
0.265521 0.116658 0.261343 0.141623 0.286489 0.129993 0.219722 0.20363 0.278255 
0.220055 0.300573 0.153843 0.284497 0.213346 0.2951 0.181542 0.863884 0.0869396 
0.167539 0.0961377 0.860636 0.0771875 0.138971 0.127802 0.15861 0.0602026 0.148817 
0.114081 0.941185 0.0901417 0.116616 0.108351 0.18532 0.118165 0.152259 0.129552 
0.158298 0.0805628 0.16768 0.100576 0.115303 0.103649 0.752535 0.0853338 0.809131 
0.0667932 0.229514 0.115919 0.131851 0.127505 0.483885 0.105664 0.178492 0.115023 
0.459872 0.0931648 0.440309 0.0779676 0.663654 0.0852783 0.70025 0.0848992 0.159891 
0.0810635 0.15305 0.109407 0.144573 0.0934897 0.176281 0.134034 0.205634 0.137833 
0.177707 0.118262 0.268023 0.118305 0.140686 0.0834343 0.186535 0.169037 0.659616 
0.0790244 0.183966 0.126502 0.161784 0.15391 0.168201 0.136421 0.170974 0.119214 
0.139344 0.12856 0.140528 0.124697 0.16518 0.141157 0.160889 0.0793468 0.158182 
0.0883275 0.140648 0.131669 0.223195 0.143378 0.61685 0.0886611 0.140197 0.127212 
0.154254 0.0626374 0.16474 0.132404 0.251417 0.0991623 0.211355 0.154573 0.389949 
0.113829 0.149694 0.134379 0.589646 0.0942176 0.244946 0.112819 0.171155 0.155436 
0.121436 0.117177 0.429904 0.0827986 0.154492 0.139916 0.380349 0.119787 0.209548 
0.144394 0.241675 0.128438 0.358949 0.109147 0.163587 0.0919086 0.182932 0.0973994 
0.369906 0.10672 0.176421 0.172481 0.527979 0.0756932 0.149532 0.139726 0.14815 
0.0954902 0.243489 0.0992439 0.148505 0.101385 0.241267 0.141708 0.223728 0.100875 
0.143829 0.128152 0.234469 0.174912 0.159715 0.116371 0.333691 0.115013 0.123432 
0.119803 0.230732 0.0982579 0.259774 0.145723 0.220981 0.12537 0.243193 0.12805 
0.221838 0.115092 0.17849 0.165663 0.170383 0.158709 0.203562 0.184114 0.21374 
0.19827 0.154233 0.144174 0.34288 0.134429 0.194318 0.159635 0.560588 0.0983149 
0.450692 0.123292 0.14416 0.135481 0.23499 0.191885 0.16852 0.111177 0.299174 
0.145799 0.177384 0.101741 0.317368 0.141283 0.166047 0.148166 0.50661 0.116452 
0.143528 0.12927 0.335849 0.150129 0.173104 0.150973 0.28383 0.155827 0.12985 
0.124973 0.219282 0.187464 0.210747 0.188321 0.187847 0.17789 0.222396 0.139433 
0.224582 0.169541 0.191168 0.117355 0.527565 0.129947 0.229147 0.154797 0.267221 
0.151647 0.262312 0.141012 0.316777 0.130987 0.333001 0.130892 0.200157 0.17623 
0.272606 0.225328 0.261814 0.206763 0.244195 0.227391 0.26593 0.136281 0.303106 
0.1672 0.287699 0.192143 0.27572 0.204663 0.23639 0.145276 0.310711 0.140489 
0.223215 0.200463 0.156382 0.146343 0.266096 0.16483 0.282544 0.170559 0.254661 
0.226069 0.232999 0.161232 0.320565 0.13008 0.2499 0.197344 0.202686 0.182972 
0.253353 0.237648 0.312839 0.151278 0.243251 0.167593 0.244592 0.189019 0.143215 
0.100193 0.156242 0.0912591 0.128441 0.0900394 0.125869 0.108128 0.860429 0.0832442 
0.28531 0.0876985 0.859999 0.0629963 0.492685 0.0664981 0.110271 0.102941 0.801303 
0.0710233 0.112969 0.102708 0.138239 0.120022 0.149564 0.141327 0.48606 0.0927737 
0.664131 0.0857326 0.119155 0.111574 0.113791 0.105536 0.213817 0.121428 0.173869 
0.151331 0.700794 0.0928467 0.410376 0.0973747 0.660088 0.0851115 0.127745 0.108464 
0.14821 0.115039 0.128486 0.114705 0.145337 0.139138 0.27374 0.107966 0.183968 
0.145384 0.65816 0.0948878 0.274414 0.0857917 0.174223 0.116248 0.191462 0.115496 
0.245876 0.0847636 0.260108 0.119889 0.170969 0.100868 0.249555 0.110032 0.144611 
0.135329 0.123776 0.111944 0.416091 0.0807118 0.205015 0.133925 0.177201 0.159723 
0.152154 0.140917 0.234527 0.121216 0.175085 0.156668 0.394002 0.102604 0.614427 
0.0971663 0.152082 0.144969 0.183857 0.137159 0.153752 0.148347 0.201417 0.144312 
0.414038 0.0966053 0.138628 0.134227 0.584511 0.0956083 0.183618 0.172026 0.262464 
0.102095 0.386689 0.108514 0.142461 0.133229 0.239404 0.134279 0.331565 0.111224 
0.177306 0.160546 0.528395 0.109515 0.146531 0.137128 0.167274 0.13476 0.432488 
0.103269 0.186897 0.122714 0.141723 0.124345 0.203567 0.0838418 0.157404 0.123043 
0.16229 0.105458 0.158621 0.147586 0.265732 0.112621 0.146992 0.128743 0.174448 
0.167738 0.563116 0.0946663 0.177383 0.152538 0.196081 0.187211 0.194753 0.156988 
0.423061 0.118309 0.475799 0.11853 0.379961 0.104587 0.115623 0.112982 0.205782 
0.176278 0.15442 0.136427 0.185876 0.140002 0.179039 0.160495 0.251028 0.124487 
0.196237 0.183901 0.508407 0.111547 0.195644 0.163731 0.183062 0.166989 0.151493 
0.125135 0.179536 0.143692 0.151196 0.135831 0.140037 0.133766 0.191927 0.183316 
0.17023 0.157135 0.213271 0.185915 0.321786 0.149325 0.144366 0.140736 0.169604 
0.137014 0.236059 0.175795 0.16067 0.156719 0.212472 0.137606 0.529162 0.11017 
0.157908 0.151601 0.254016 0.17171 0.176801 0.157546 0.205074 0.18668 0.217803 
0.133535 0.202379 0.187454 0.286778 0.154641 0.186081 0.169507 0.191168 0.135393 
0.202655 0.181048 0.199591 0.176805 0.208616 0.189793 0.165149 0.154769 0.243606 
0.228013 0.25342 0.145267 0.263212 0.211376 0.189306 0.173946 0.192477 0.162958 
0.225964 0.193388 0.184764 0.171559 0.231946 0.200002 0.310428 0.107705 0.190805 
0.169546 0.264876 0.181046 0.237023 0.223199 0.292609 0.151961 0.266136 0.201604 
0.199338 0.19701 0.222704 0.185065 0.218146 0.163837 0.159575 0.104036 0.95214 
0.0795229 0.943196 0.0796012 0.286809 0.0716602 0.16624 0.0845286 0.121893 0.116787 
0.859395 0.0849649 0.106402 0.0969252 0.810128 0.0840183 0.809542 0.080997 0.809826 
0.0823749 0.486966 0.0863127 0.166944 0.103944 0.164252 0.150575 0.144394 0.083011 
0.127773 0.114826 0.16533 0.152323 0.124035 0.0989664 0.743289 0.0817722 0.155916 
0.0972913 0.13647 0.127397 0.742959 0.0836981 0.346734 0.0992896 0.1421 0.124466 
0.140019 0.124461 0.145774 0.13493 0.14506 0.120341 0.200032 0.175282 0.242211 
0.103897 0.140677 0.129117 0.413167 0.0937131 0.129742 0.116347 0.161396 0.129659 
0.219906 0.124699 0.451211 0.0903597 0.156692 0.0959332 0.129062 0.124685 0.158954 
0.107257 0.418095 0.101514 0.119093 0.113663 0.371324 0.110102 0.16688 0.153562 
0.151814 0.0941597 0.134183 0.10941 0.155881 0.145788 0.226413 0.133983 0.196372 
0.165913 0.247573 0.101253 0.125492 0.1033 0.197651 0.159113 0.241794 0.100011 
0.424153 0.096646 0.392718 0.108346 0.383819 0.114971 0.225194 0.122494 0.254741 
0.134175 0.20122 0.178904 0.37324 0.0970829 0.319646 0.0962784 0.355553 0.10244 
0.140472 0.131627 0.387964 0.0899351 0.184677 0.113377 0.146043 0.135157 0.175506 
0.158058 0.143508 0.13875 0.162102 0.12122 0.366921 0.104464 0.166141 0.147542 
0.157737 0.140133 0.135328 0.126924 0.18205 0.166372 0.154311 0.128028 0.154577 
0.133212 0.174488 0.163614 
