# vtk DataFile Version 4.1
vtk output
ASCII
DATASET POLYDATA
POINTS 1300 float
16125 47875 54078.1 15093.8 45358.8 52015.6 15403.1 46113.6 52634.4 
19734.4 43794.3 47117.2 15186.6 45585.2 52201.2 12000 42777.5 45054.7 
17894.5 44383.3 48326.3 17420.3 42203.1 41960.9 12548.2 42869 45470.5 
11226.6 40697.5 40414.1 17676.3 43380.4 45398.2 23859.4 39672.4 41960.9 
12151.7 42217.6 43953.5 8132.81 37627.5 43507.8 11081.1 40844.4 41364.2 
7875 37946.1 38351.6 22180.8 40747 43669.3 27327.5 38078.1 45570.3 
22684.4 40424.6 43156.8 21023.4 40197.3 37062.5 11182.9 40741.5 40699.1 
15093.8 41230.7 36031.2 8985.66 38027.5 43808.6 6473.53 31632.8 44796.9 
23815.8 39657.9 42377.8 28500 36398.2 39898.4 8451.88 38435.1 38587.4 
5812.5 35849.6 34226.6 7422.07 34787.5 43239.7 5554.69 31937 40929.7 
27157.2 37052.4 41127.2 30619.2 32921.9 42476.6 21627.1 40454.6 37568.9 
21281.2 40856.3 31906.2 21385 40735.8 33605 16125 41230.7 30617.2 
6752.79 32195.2 43989.5 5554.69 25960.9 43813.1 24818.2 38876.2 42002.6 
26228.2 38593.8 36289.1 6300.49 35849.1 35151.3 4207.87 30859.4 32421.9 
9661.33 39543.3 39864.7 10195.3 40170.5 35000 5870.87 32086.6 41300.7 
4212 27507.8 39125 28248.3 36291.2 40128 31593.8 33250.8 37062.5 
21514.6 40918.7 32195.1 22570.3 41741.1 27781.2 4835.7 32356.3 33240.7 
4207.87 31890.6 28554.7 17112.1 41096.2 31712.7 13031.2 41224.5 32679.7 
26660.7 38661 36887.1 28500 38505.1 32679.7 29683.3 33315.2 42328.8 
30611 27765.6 44023.4 16421.1 41190.3 30945.8 16640.6 41244.1 27007.8 
9719.19 39816.5 35844.3 7824.47 38851.6 31648.4 6046.18 27601.5 44501.5 
6070.31 22093.8 48289.7 4528.08 31045.3 32622.9 4207.87 26734.4 30875 
30263.6 33071.4 42420.4 31652.5 28539.1 39382.8 30698.7 33520.4 37529.2 
31652.5 29312.5 34484.4 8392.89 39141 32907.2 10453.1 40516 28554.7 
4364.11 28094.6 30873.2 4523.44 25673.2 26492.2 27948.2 38551.9 33941.9 
31148.3 34726.6 32937.5 22750.8 41390.7 28183.1 24421.4 41429.7 24171.9 
16314.3 41346.8 27283.6 15788.8 41687.5 22367.2 4408.76 31750.9 28827 
4207.87 30859.4 24171.9 30011.8 28314.3 43627.2 29531.2 23382.8 44545.2 
28334.5 38519.1 33058.4 29602.4 36273.4 28812.5 4319.25 26903.5 30802 
4523.44 23764.4 30359.4 4816.31 26167.7 26739.1 5751.66 24671.9 22367.2 
30923.6 28978.8 40354.9 30636.8 24929.7 39382.8 31114.3 30269.5 34592.5 
30820.3 27921.3 31390.6 24110.7 41094.3 24894 25423.8 39109.4 21593.8 
28218.6 38528.9 33323.4 26759.2 40140.6 30875 27369.3 39542.6 31262.7 
27468.8 39898.3 27523.4 24924.8 39863.6 22847.8 22700.2 40398.4 19015.6 
28886.8 36562.9 29065.9 29015.6 34984.4 25675.4 16123.3 41586.5 22641.1 
16382.8 41716.4 17726.6 7931.61 38849.1 31756.6 6843.75 37945.1 28554.7 
4611.3 25821.6 26566.3 6270.37 20804.7 26234.4 10227 40131.8 28792.5 
12000 40715 24429.7 4686.37 23974.7 30608.6 5396.91 20031.2 30617.2 
5649.36 24782.5 23861.3 7359.38 21722.5 22109.4 6905.21 22861.8 22397.7 
8390.62 22210.3 19789.1 5720.92 24705.1 22815.4 5752.69 26218.8 20562.5 
25274.1 39335.6 21970 26437.5 36015.6 20746.1 4362.15 31172.3 24779.1 
4922.53 31375 19531.2 29446.8 24729.3 44836.7 27726.6 20671.7 48921.9 
30487.3 25434.3 39500.9 29015.6 20725.3 38351.6 28946.1 35836.8 27506.3 
29904.6 30601.6 27265.6 29457.1 22138 38696.3 29015.6 21231.6 35257.8 
23249.2 39929.2 19617.2 22331.1 38078.1 15921.9 29254 21488.1 38537.7 
27858.6 19000 41703.1 6364.84 21286.9 26169.7 8029.69 18226.6 25718.8 
28567.8 22387.8 46405.3 27468.8 18148.2 45828.1 5502.4 20418.8 30903.2 
6585.94 16908.6 31648.4 30677.2 28143.9 32403 29063.1 23640.6 30617.2 
8199.02 22478.2 20060.3 9886.97 22867.2 16695.3 26010.3 36284 20797.6 
26241.6 33179.7 19531.2 5743.2 25764.6 21238.4 7341.84 25187.5 17984.4 
24422.1 39883.3 21878.6 21281.2 42256.8 21335.9 5116.82 30804.8 20416.5 
6256.97 29570.3 16695.3 7101.36 38142.9 28913.9 6585.94 37614.1 24945.3 
5458.88 30434.5 19300.1 5812.5 32921.9 16632.4 22606.5 38633.5 17030.5 
24049.1 34468.8 16437.5 16007 41460.7 18548.2 14198.6 40140.6 14117.2 
29087.1 20954.1 38407.5 27210.9 18432.8 37835.9 11432.6 40384.6 24815.2 
12000 40201.5 20820.3 28887.2 21200.3 36280.8 26994.4 18742.2 33968.8 
4440.84 31855.3 26218.1 4781.25 34273.8 22625 27459.5 18863 45579.7 
26179.7 15855.7 44281.2 7396.6 22013.5 22315.6 9539.44 19000 22367.2 
30777.4 27988.1 31694.3 29273.4 26689 28039.1 9474.36 23030.7 17206.8 
10195.3 24785.3 13859.4 29526.7 26680.8 29137.9 27322.3 23382.8 26750 
6473.84 17454 31736 7875 14034.5 33710.9 26309.4 36096.1 20761.5 
27984.4 33953.1 22817.8 6268 29507.8 17109.9 7875 27457.3 14632.8 
11901.7 40084 20912.8 12135.1 39625 17726.6 5894.9 31979.1 17141.8 
7285.12 32406.2 13601.6 6552.32 17072.2 31674.7 8906.25 15390.6 29120.8 
27391.4 19458 34159.9 26179.7 19114.5 30875 23616.3 35718.2 16615.4 
22361 33179.7 13343.8 7392.89 28072.4 15375.9 8197.78 29312.5 12312.5 
6940.69 37966.1 25655.9 8125.59 39109.4 22367.2 7062.06 32651.9 14377 
8373.09 34984.4 12312.5 7004.32 15932.2 32992.5 6760.22 15132.8 35773.4 
27359.8 18687.7 38134.6 24655.5 15390.6 38867.2 23919.3 34843.6 16490.9 
24375 29828.1 16613.8 27113.5 18956.9 34026.1 24890.6 16993.2 32679.7 
7928.63 14258.6 33661.3 9937.5 11975.1 34742.2 27983.6 24372.2 27466.4 
26497.3 24671.9 23914.1 26543.2 19217.5 31860.5 27210.9 21187.3 29328.1 
26122.1 19042.7 31124.9 24444.1 18226.6 29070.3 26666 16998.5 44774.7 
25480.5 14617.2 46859.4 7457.86 38365.1 23384.3 6995.34 37304.7 19531.2 
25931 15522.1 46067.2 23343.8 12131.9 44281.2 24045.6 31037.9 16303.3 
22901.3 28796.9 14632.8 23336.2 29648.5 15267.5 22359.9 30085.9 12828.1 
11997.3 39568.5 18189.8 11600.9 38335.9 14890.6 6846.02 15096 35455.7 
6902.53 13328.1 38867.2 6876.54 14141.4 37297.9 9421.88 11723.5 38093.8 
24634.8 18260.1 29444.6 22570.3 16892.1 27781.2 27009.1 24994.3 24760.3 
26437.5 27724.4 21078.1 24501.3 18236.6 29182.6 25406.2 20376.7 26750 
7058.97 37198.3 19734.1 6826.22 36015.6 16953.1 7014.42 37272.8 19592.1 
8906.25 38335.9 18099.9 23522 12613.3 44984.7 21023.4 9976.56 44752.5 
23205.7 29393 15077.2 23343.8 26218.8 16398.3 22809 29884.7 13950.3 
21539.1 27406.8 12312.5 22180 29098.2 12953.9 20765.6 29045.4 9992.19 
8658.24 12448.9 37855 9017.62 10492.2 41187.5 23189.7 17302.5 28280.2 
22364.1 18226.6 25203.1 22954.3 17146.6 28090.6 21048.2 14875 29585.9 
29314.6 26871 28253.4 28500 28023.4 24939.1 21731.4 27914.2 12504.9 
20765.6 24156.2 14168.8 24305.6 30095.7 16691.1 24890.6 28023.4 18119.5 
21596.8 27559 12370.3 19734.4 26163.1 10250 22431.3 18317.8 25307.4 
21796.9 19257.8 22740.5 22685.5 16968.5 27874.1 19781.8 15648.4 26492.2 
22384.2 18253.9 25234.4 19218.8 17083.9 23398.4 21198.4 15263.4 29326.6 
18445.3 13268.3 30617.2 29444.9 32433.9 27025 29017.7 30601.6 24945.3 
22139.5 18750.2 24126.6 23859.4 21062.5 22970.5 20146.2 17653.4 23639.8 
17929.7 18226.6 20532.6 28924.9 31060.2 25145.9 27530.6 30343.8 22367.2 
23431.1 20746.1 22945.5 24117.2 23262.2 20562.5 18972.1 13598.5 30629.7 
16898.4 11779.2 33195.3 20174.3 14497.6 29926 17671.9 13829.3 28296.9 
23801.6 22104.8 21658.7 22178.4 22093.8 19015.6 24022.5 22914.9 20891.4 
25259.8 25187.5 20820.3 17732.5 12408.2 32766.5 17671.9 11724.5 36546.9 
22665.4 22097.1 19808.5 20295.4 20289.1 19273.4 22195.8 22073 19122.5 
20250 21931.8 16437.5 20568 20688.3 19237.4 17671.9 19653.8 17984.4 
15943.4 44000.7 50261.2 18445.3 45325.8 52789.1 17149.7 44403.9 51044.9 
19734.4 44325.4 50984.4 14671.7 44723.8 49234.6 15609.4 44836.9 47375 
19229.7 44266 50820.3 21114.2 43750 49695.3 14157.5 44095.2 47633 
15093.8 43810.8 45054.7 20846.7 43633.1 49694.4 22312.5 42742.5 48406.2 
21610 43101.4 48707.5 21796.9 42571.3 46601.6 19405.8 42275 44165.2 
19992.2 41689.6 42476.6 17245.6 42973.4 44061.2 15093.8 42743.5 42476.6 
21710.9 42815.2 47570.3 24375 40973.9 46601.6 15349.2 42538.2 42622.7 
13546.9 41747.3 41187.5 17362.6 42178.2 42055.5 17414.1 41233.8 39898.4 
8525.1 37811.5 43646.2 8014.22 38078.1 41960.9 17382.2 41819.3 41235.9 
19476.6 40739.8 40414.1 22739.3 39986.8 40356.2 23343.8 39367.2 39282.8 
13869.3 41059.2 37953.7 16125 41228.6 38093.8 8065.27 37823 42370.3 
7101.56 36922.1 40671.9 21204.5 40274.5 37214.4 19218.8 40708.8 37578.1 
26348.4 38299.9 44681 28242.2 36582.8 44023.4 7193.35 37030.8 40710 
6328.12 36280.7 38867.2 25040.7 38820.6 39286.6 24426.6 38851.6 38093.8 
6933.78 36805.7 40157.2 5760.94 34468.8 40156.2 8016.18 36018.7 43455.9 
7817.25 33179.7 46601.6 18603.3 41019.4 33252.1 16898.4 41230.7 33710.9 
7682.67 33136.8 46154.1 7359.38 31117.2 47708.1 24598.2 38928.1 38222.6 
24117.2 39475.5 36031.2 28424.5 36366.1 39967.3 28500 36407.5 38093.8 
6175.5 30069 43690.2 5296.88 28539.1 42481.7 7462.81 31258.1 47631.8 
7359.38 29312.5 49211.7 29260.8 35143.6 39430.4 30754.3 33437.5 40156.2 
24310.7 39414.3 36154.9 24258.5 39882.8 33968.8 10052.5 40064.3 35253.3 
12773.4 40731.5 35257.8 5649.56 31981.9 41041 4781.25 32148.4 38898.1 
29831.3 34719.1 38490.3 30562.5 35242.2 36381.9 5702.16 26453.1 44019.6 
4729.69 26218.8 41703.1 28515.7 36492.2 38310.8 28757.8 37092.2 36031.2 
17798.1 41060.8 32420.8 18703.1 41230.7 29585.9 24163.4 39949.4 34182.4 
23859.4 40656.2 32233.2 16062.1 41238.2 29550.1 14062.5 41230.7 28039.1 
9932.24 39753.3 38423 11484.4 40516 37320.3 5005.03 26048.1 42421.1 
4265.62 24414.1 41040 5218.6 32329.5 39706.9 5238.09 33953.1 38093.8 
4924.8 29729.3 39771.8 4207.87 29312.5 37062.5 14255.5 41186 32389.6 
12515.6 41224.5 30359.4 31325.2 33331.7 37202.5 31645.3 33953.1 35000 
30896.9 31397.6 40857.6 31959.8 30601.6 38609.4 24230 39902.8 34032.8 
25921.9 39625 33514 22624.5 41636 27901.8 20765.6 41745.2 27007.8 
16019.7 41395.2 25666.7 14578.1 41230.7 24687.5 4425.78 28174.3 39319.1 
4207.87 26992.2 37062.5 21918.1 41677.5 27562.1 21796.9 42247.5 24945.3 
31508.7 33469.4 35730.5 31652.5 32406.2 33453.1 20788 41727 27049.2 
18703.1 41745.2 26234.4 31540.9 32729.4 33707.1 31132.8 32664.1 30875 
31280.2 28582.8 39553.7 31648.4 27250 37062.5 5958.94 35849.4 34504 
6070.31 36581.8 31648.4 4393.5 27660.1 28165 4207.87 28023.4 26492.2 
[...]
CELL_DATA 1299
SCALARS radius float
LOOKUP_TABLE default
0.0982337 1.14662 0.0842389 0.853692 0.070965 0.959914 0.0508816 0.838273 0.0597709 
0.95907 0.0482092 0.837766 0.0701836 0.788645 0.0770067 0.950758 0.105135 0.946665 
0.0638932 0.220335 0.0985636 0.455647 0.0929532 0.829975 0.0484887 0.720739 0.0508666 
0.415267 0.0607409 0.770938 0.0523954 0.650708 0.0675163 0.647928 0.0556455 0.323603 
0.0970097 0.829549 0.0803851 0.720107 0.0706172 0.782573 0.0507439 0.335381 0.108026 
0.475438 0.068596 0.577679 0.0584127 0.708877 0.0710136 0.413191 0.0802674 0.457397 
0.0743092 0.705222 0.0885663 0.383305 0.0664877 0.470151 0.0561104 0.310695 0.155283 
0.631369 0.0624928 0.651194 0.0595579 0.450447 0.0760364 0.458044 0.0643351 0.630406 
0.0644047 0.454019 0.137395 0.576712 0.089295 0.364545 0.093232 0.467473 0.068529 
0.411151 0.0720298 0.397061 0.0755727 0.487369 0.0429673 0.498091 0.0870765 0.649139 
0.0585204 0.427811 0.0763223 0.560057 0.0628083 0.444527 0.0712073 0.293339 0.0794379 
0.558257 0.0695705 0.38062 0.0807103 0.317369 0.129036 0.339277 0.0795018 0.315351 
0.0798484 0.377838 0.0999636 0.485712 0.0841069 0.451785 0.0898706 0.387882 0.0731518 
0.29381 0.109217 0.293234 0.0737464 0.438951 0.106094 0.391888 0.131609 0.642788 
0.0536157 0.356026 0.136397 0.635312 0.0557847 0.518107 0.110007 0.299767 0.0993707 
0.288615 0.0970544 0.369631 0.104363 0.479984 0.0689424 0.409164 0.150563 0.354783 
0.0839406 0.260346 0.132021 0.291238 0.0979075 0.52987 0.104238 0.426095 0.0711726 
0.338765 0.0666643 0.423891 0.117079 0.512112 0.0876893 0.303423 0.126434 0.27128 
0.0704954 0.346685 0.0602565 0.612237 0.0729999 0.466926 0.126029 0.349991 0.0870436 
0.225195 0.153229 0.389132 0.0836056 0.307384 0.160882 0.385489 0.0951505 0.479122 
0.0638859 0.196486 0.159994 0.330097 0.0813935 0.314847 0.0928943 0.337879 0.122278 
0.302664 0.0730669 0.598879 0.0735972 0.508175 0.157874 0.296119 0.120925 0.333532 
0.0995182 0.326502 0.122266 0.434907 0.0895843 0.26506 0.1263 0.500017 0.09154 
0.180301 0.1131 0.293255 0.0913632 0.302743 0.144498 0.593381 0.127793 0.586656 
0.0644449 0.34687 0.135425 0.325542 0.0676421 0.321261 0.148755 0.484279 0.119204 
0.44906 0.105453 0.248834 0.203647 0.380697 0.100798 0.368495 0.10843 0.582639 
0.0731041 0.260059 0.216093 0.186644 0.102588 0.307249 0.163881 0.270646 0.155837 
0.302297 0.194921 0.315583 0.112563 0.389575 0.0971264 0.374218 0.184458 0.334414 
0.113824 0.574692 0.0534836 0.375813 0.098488 0.291263 0.0900568 0.333687 0.217471 
0.284472 0.102671 0.25326 0.191257 0.512675 0.120677 0.161433 0.156272 0.374063 
0.0836763 0.365609 0.0815359 0.279051 0.118239 0.43517 0.107981 0.369113 0.146165 
0.248848 0.148442 0.416353 0.123625 0.327044 0.0996823 0.363211 0.125151 0.408851 
0.0873336 0.238173 0.186518 0.29484 0.213086 0.379909 0.143249 0.31567 0.136287 
0.285931 0.234579 0.295017 0.0987958 0.291341 0.0741396 0.841783 0.0724372 0.279344 
0.0682042 0.840433 0.0664227 0.277593 0.0937545 0.276213 0.0854437 0.951294 0.0914811 
0.274965 0.0712597 0.268202 0.0986297 0.188563 0.089045 0.236798 0.095085 0.199801 
0.0764057 0.236012 0.0578085 0.651587 0.0876083 0.218859 0.0833784 0.196871 0.0647906 
0.1154 0.108462 0.210127 0.0631807 0.192958 0.121908 0.480033 0.0463573 0.190492 
0.137972 0.435857 0.0861649 0.428016 0.102535 0.217488 0.084216 0.243062 0.0513609 
0.209008 0.0651279 0.316201 0.117517 0.200542 0.1588 0.460389 0.100759 0.236447 
0.0572555 0.188507 0.0785738 0.242353 0.0872278 0.456827 0.0724886 0.233608 0.0779779 
0.199834 0.0588856 0.426045 0.0834091 0.226334 0.0991626 0.376579 0.105491 0.471568 
0.0980341 0.227893 0.15838 0.241074 0.0595351 0.282406 0.11454 0.236365 0.112584 
0.224504 0.0958652 0.650176 0.109509 0.190739 0.0863493 0.243905 0.0499304 0.356098 
0.0943987 0.223544 0.101729 0.242783 0.0638871 0.222348 0.0723354 0.168941 0.108246 
0.193031 0.14993 0.174621 0.108942 0.255823 0.0581642 0.511544 0.0588949 0.156354 
0.151013 0.211708 0.134423 0.25005 0.049975 0.383642 0.113425 0.208578 0.0885872 
0.188161 0.118899 0.253455 0.13572 0.370569 0.052507 0.334188 0.113835 0.229433 
0.0898579 0.159081 0.0954638 0.213141 0.0598568 0.192907 0.11518 0.405853 0.0715782 
0.192655 0.115063 0.209237 0.0721587 0.314664 0.147684 0.197338 0.118645 0.407262 
0.113825 0.210363 0.100685 0.278615 0.0809878 0.210605 0.0811449 0.195294 0.0914188 
0.19295 0.17666 0.167986 0.135009 0.189521 0.156082 0.194562 0.129771 0.213187 
0.123821 0.23075 0.112376 0.191953 0.116902 0.360723 0.131633 0.337299 0.108331 
0.184882 0.155802 0.273897 0.169989 0.510414 0.120322 0.20577 0.0700119 0.237277 
0.103714 0.20968 0.118586 0.307562 0.146247 0.295436 0.178458 0.603354 0.0721507 
0.229766 0.151054 0.499116 0.14144 0.190147 0.0701957 0.301467 0.132455 0.204394 
0.0902518 0.254392 0.117985 0.218628 0.163558 0.258248 0.0803492 0.171309 0.117486 
0.201618 0.14867 0.283494 0.147463 0.343892 0.0829946 0.17492 0.167419 0.247828 
0.115767 0.278735 0.159633 0.254029 0.157782 0.23186 0.114388 0.190944 0.183314 
0.228493 0.216595 0.157151 0.15355 0.182462 0.176895 0.320682 0.129914 0.277367 
0.147267 0.22352 0.159726 0.262774 0.173974 0.271907 0.209622 0.495301 0.101025 
0.276284 0.189065 0.182631 0.173581 0.331359 0.147758 0.309809 0.159304 0.18871 
0.177025 0.26923 0.111338 0.232937 0.145791 0.268308 0.228366 0.250562 0.138966 
0.26757 0.149831 0.279048 0.170505 0.282125 0.220247 0.272804 0.180848 0.243009 
0.226804 0.262433 0.180464 0.288949 0.126101 0.259591 0.0892605 0.421326 0.137807 
0.181309 0.175636 0.320093 0.100715 0.234747 0.177946 0.239611 0.218879 0.197783 
0.175828 0.216452 0.211269 0.313426 0.145653 0.258766 0.245495 0.960055 0.0731235 
0.283578 0.100205 0.165886 0.0808727 0.144879 0.134206 0.951012 0.0882311 0.123835 
0.111067 0.838103 0.0892088 0.459391 0.0855826 0.458399 0.0824982 0.204545 0.106105 
0.0958779 0.0916296 0.185108 0.0968169 0.140643 0.130105 0.222755 0.0962589 0.441185 
0.0860783 0.212058 0.104878 0.192102 0.114004 0.162703 0.141371 0.200959 0.0958625 
0.150282 0.134563 0.649144 0.0880138 0.175186 0.165042 0.648604 0.0948057 0.117557 
0.114194 0.321026 0.113689 0.121534 0.11865 0.197501 0.106605 0.198851 0.163396 
0.108942 0.104742 0.16671 0.115881 0.186552 0.129591 0.189004 0.140259 0.129233 
0.0976164 0.248201 0.129334 0.210875 0.134034 0.224744 0.0834111 0.412648 0.0913271 
0.189365 0.111798 0.214355 0.106474 0.471072 0.0773306 0.191013 0.117607 0.13347 
0.124187 0.118614 0.113381 0.177496 0.117071 0.196724 0.143631 0.179129 0.099604 
0.235894 0.168101 0.191836 0.12667 0.186404 0.134596 0.126098 0.120248 0.167474 
0.150795 0.15265 0.117844 0.396191 0.0958972 0.373097 0.101599 0.143605 0.107723 
0.178269 0.0786974 0.415317 0.0760654 0.21745 0.112861 0.119615 0.117737 0.391581 
0.119005 0.174827 0.129493 0.294424 0.113989 0.174965 0.15715 0.481491 0.101484 
0.146383 0.139188 0.186467 0.170488 0.206803 0.108844 0.276715 0.115435 0.273591 
0.0660755 0.137354 0.131127 0.191045 0.119124 0.201651 0.117555 0.357684 0.108146 
0.151736 0.143975 0.388059 0.0917941 0.428923 0.115749 0.177957 0.147321 0.3634 
0.0957508 0.187039 0.176759 0.32272 0.13389 0.187343 0.146777 0.286025 0.142949 
0.206578 0.165179 0.342557 0.117554 0.250057 0.157117 0.319372 0.0948861 0.220319 
0.136629 0.174158 0.162627 0.184776 0.167639 0.227388 0.15106 0.169015 0.158393 
0.29269 0.13181 0.180872 0.158989 0.333126 0.129301 0.201191 0.165658 0.183904 
0.131709 0.219261 0.171392 0.137562 0.132132 0.169275 0.125859 0.250946 0.0792989 
0.191827 0.142998 0.249783 0.119844 0.186764 0.183398 0.228447 0.114297 0.160502 
0.152735 0.174303 0.154013 0.267907 0.181493 0.218073 0.127704 0.168623 0.14623 
0.15714 0.142517 0.313031 0.144995 0.229416 0.168402 0.193977 0.179691 0.298056 
0.175321 0.209178 0.171879 0.58627 0.123981 0.576183 0.113989 0.244246 0.164853 
0.20706 0.189406 0.226152 0.1847 0.200059 0.158266 0.209388 0.168439 0.297431 
0.156822 0.313198 0.163992 0.51517 0.125506 0.267641 0.159757 0.240781 0.138811 
0.227481 0.217555 0.251476 0.177775 0.248406 0.20273 0.280711 0.143387 0.173382 
0.164873 0.156415 0.147987 0.426164 0.137611 0.413918 0.137026 0.265211 0.169259 
0.251749 0.18845 0.210013 0.202243 0.193999 0.174801 0.23989 0.152416 0.237891 
0.218087 0.124387 0.098656 0.116454 0.106242 0.959299 0.0858174 0.119333 0.103277 
0.118328 0.110894 0.951476 0.0791402 0.78893 0.080991 0.236952 0.110468 0.168053 
0.150341 0.178724 0.0668958 0.139131 0.125722 0.196596 0.1857 0.222026 0.112106 
0.130085 0.110293 0.480759 0.079531 0.15642 0.138791 0.130541 0.116637 0.223664 
0.0966043 0.771797 0.0894191 0.172137 0.135251 0.10449 0.101356 0.139917 0.135483 
0.212883 0.116531 0.165587 0.119518 0.195464 0.151298 0.771397 0.0935562 0.208135 
0.101196 0.130989 0.106986 0.210059 0.200513 0.142814 0.0796729 0.162814 0.121782 
0.141497 0.13291 0.158336 0.134135 0.420953 0.0792735 0.157929 0.0925708 0.456568 
0.0919079 0.166972 0.154389 0.367974 0.11134 0.359824 0.11273 0.431033 0.0986912 
0.131672 0.121298 0.631074 0.0927232 0.429301 0.0936459 0.158639 0.149607 0.183573 
0.147716 0.459825 0.104017 0.171846 0.151398 0.124301 0.119902 0.499713 0.10659 
0.123759 0.119143 0.214797 0.16248 0.409777 0.107978 0.15405 0.133193 0.390711 
0.106453 0.183928 0.0980823 0.644226 0.0921472 0.269947 0.0990053 0.182322 0.152701 
0.298242 0.100189 0.314453 0.108531 0.169341 0.138984 0.188698 0.12276 0.177262 
0.0803038 0.158971 0.11256 0.169491 0.149564 0.1656 0.15323 0.153271 0.128582 
0.175621 0.172446 0.155748 0.142736 0.150216 0.134241 0.286433 0.120975 0.388151 
0.106109 0.162724 0.155699 0.315142 0.131136 0.269849 0.126072 0.212359 0.111248 
0.110302 0.105906 0.214302 0.201 0.159134 0.15181 0.354358 0.117561 0.234936 
0.134372 0.215878 0.132452 0.202116 0.189801 0.246961 0.143132 0.19296 0.145638 
0.604389 0.104251 0.22368 0.197849 0.221334 0.194833 0.155663 0.138196 0.129254 
0.121847 0.211236 0.16375 0.221667 0.207008 0.148868 0.140617 0.164787 0.135378 
0.176852 0.17031 0.300318 0.12312 0.28648 0.162397 0.185581 0.147128 0.179073 
0.173732 0.169962 0.161016 0.236634 0.208671 0.168294 0.146511 0.154954 0.121977 
0.186621 0.167171 0.249415 0.153066 0.379036 0.125581 0.312849 0.117324 0.164164 
0.131786 0.176221 0.159078 0.19151 0.104134 0.170274 0.156153 0.178125 0.166558 
0.374384 0.13458 0.25904 0.17983 0.289779 0.171203 0.266357 0.229822 0.19944 
0.131643 0.188294 0.175452 0.184047 0.172742 0.214593 0.193164 0.224391 0.17125 
0.226467 0.204211 0.275501 0.171082 0.247984 0.158098 0.373698 0.1238 0.248501 
0.211276 0.245024 0.206716 0.281277 0.145769 0.239084 0.152194 0.241829 0.162128 
0.307301 0.15021 0.214584 0.189063 0.17113 0.148189 0.226509 0.172495 0.23382 
0.209861 0.273406 0.195995 0.960216 0.0762308 0.131834 0.0892952 0.840704 0.0831149 
0.138657 0.1003 0.272565 0.098539 0.253297 0.0910358 0.143379 0.129922 0.158051 
0.153951 0.78287 0.0817468 0.119921 0.105166 0.216594 0.0959492 0.195839 0.0930831 
0.153961 0.139965 0.442463 0.0907918 0.437342 0.0947115 0.649496 0.0763421 0.720446 
0.0807559 0.176685 0.116164 0.651058 0.0763607 0.189065 0.172485 0.242308 0.100709 
0.103481 0.0992104 0.70918 0.0770409 0.461574 0.0910624 0.429497 0.0934767 0.45829 
0.0825084 0.286389 0.0988766 0.126571 0.10315 0.151837 0.144647 0.258348 0.124999 
0.139941 0.130741 0.136899 0.125685 0.135898 0.132108 0.577372 0.0870178 0.149315 
0.101514 0.152665 0.140353 0.16166 0.141405 0.152947 0.13396 0.455323 0.0931697 
0.414596 0.0999914 0.204509 0.110814 0.216242 0.115936 0.561787 0.086742 0.122929 
0.11607 0.177801 0.165924 0.210913 0.166696 0.146653 0.129384 0.48864 0.0968163 
0.487027 0.0977021 0.644899 0.0943045 0.13653 0.118478 0.559299 0.099188 0.561097 
0.0993581 0.302842 0.107627 0.136156 0.102118 0.149158 0.126829 0.643597 0.100111 
0.173345 0.123987 0.384953 0.0834274 0.128773 0.125795 0.338186 0.110677 0.144302 
0.138175 0.148922 0.140693 0.14037 0.136644 0.200986 0.136886 0.204856 0.136377 
0.2077 0.114766 0.173021 0.116445 0.177093 0.162165 0.148832 0.136141 0.51307 
0.0910709 0.141987 0.125669 
