# vtk DataFile Version 4.1
vtk output
ASCII
DATASET POLYDATA
POINTS 1300 float
16125 47875 54078.1 15093.8 45355.7 51757.8 15403.1 46111.5 52453.9 
19476.6 43808.8 47117.2 15186.6 45582.4 51966.6 12000 42736.3 44796.9 
18196.3 44161.6 47872.3 18187.5 41887.6 42218.8 19092.5 43914.6 47343.8 
24375 40973.9 46601.6 12081.3 42501.9 46585.9 8648.44 38646.3 42992.2 
22790.2 41856.1 46824.2 24250.2 39367.2 41703.1 17720.6 42409.6 43239.9 
14835.9 41230.7 38609.4 9358.76 39472.8 43168.4 7101.56 37113.9 37320.3 
18047.4 42044.2 42525.1 20507.8 40200.4 37062.5 8861.49 38894.3 43045.1 
6843.75 32452.7 44796.9 23461.8 40711.2 44468.5 28874.3 36015.6 44281.2 
19769.7 40753.6 38701.3 16640.6 41230.7 33968.8 26817.6 37799.9 44352.4 
28757.8 36067.2 39640.6 7516.02 35143.9 43502.1 5448.47 31890.6 40929.7 
7174.16 36912.7 38469.8 4781.25 33699.4 34742.2 7205 33170.2 44858.2 
7359.38 29312.5 49211.7 20286.4 40366.4 37554.1 22312.5 40851.2 31390.6 
14820.6 41461.8 39008.4 11484.4 40708.8 34742.2 6952.13 32667.9 44815.2 
5446.41 25960.9 43765.6 28304.5 36097.1 44167.5 31121.4 31117.2 43250 
5387.94 34221.2 34780 4213.03 31890.6 30617.2 28175.7 36587 41054.2 
26769.6 38593.8 35515.6 17629.8 41101.9 34560.7 17671.9 41230.7 29070.3 
5928.1 31964.7 41236.8 4207.87 27507.8 38351.6 28583.2 36223.1 40064.7 
31629.8 33179.7 36804.7 17659.3 41192 30717.4 13804.7 41230.7 27523.4 
30210.2 32751.9 43065.8 31654.6 30343.8 39640.6 30558.5 34402.6 37512.5 
31593.8 34305.8 33710.9 21887.7 41047.3 31613.8 23085.9 41745.2 26492.2 
7123.32 37053.5 37665.2 7617.19 38635 32421.9 6060.72 27773.6 44746.6 
6070.31 22141.2 48148.4 30848.1 31607.6 43194.7 30241.8 26734.4 44281.2 
4529.52 31870.2 31380.2 4207.87 27250 28039.1 31308.4 33546.5 37017.1 
31656.7 29828.1 34484.4 31283.1 34334.8 34851.4 29910.8 37562.5 31906.2 
4397.62 30409 29685.5 4207.87 30343.8 25718.8 14376.2 41120.2 28421.9 
10453.1 40516 27781.2 13976.1 41197.6 27793 15093.8 41233.8 22625 
22726.5 41535.9 28028.7 19476.6 41771 24945.3 23111.8 41566.8 26719.8 
24375 41114.1 23398.4 5996.17 35306.2 35488.7 5266.97 35242.2 30617.2 
4339.36 27591.7 28375.3 4781.25 23598.3 27265.6 4247.37 27352.5 28139.9 
5039.06 26171.3 23398.4 30472.2 28586.2 43868.3 30884.2 25187.5 39898.4 
30161 26841.1 44172.9 29088.8 22867.2 44539.1 31329.2 30512.7 34428.6 
30885.3 28023.4 31390.6 4801.56 26525.7 24820.9 4720.41 29828.1 21593.8 
30383.8 36030.2 32523 29074.4 36531.2 27265.6 4967.8 26277.6 23825.2 
6784.97 23640.6 20820.3 12257.7 40793.9 28076 10710.9 40213.8 23914.1 
24157.7 40847.4 23898.2 25258.8 38335.9 20562.5 22185.1 40910 31457.6 
26437.5 40183.9 31132.8 30725.5 35386 33407.8 30562.5 33437.5 29000.2 
15241.4 41365.3 22979.4 16898.4 41745.2 17984.4 24752.3 39491.2 22096.9 
22828.1 40023.1 18757.8 30550.9 25331.3 40129.3 30046.9 22787.8 37320.3 
10904.3 40323.7 28039.8 7101.56 38129.7 28554.7 29589.6 36686.6 30091.2 
27984.4 39466.2 28296.9 4648.73 24796.4 27598.5 5396.91 20031.2 30617.2 
4741.45 23957.7 27365.5 6801.47 20804.7 24687.5 5540.15 22520.6 26628.5 
6473.53 19773.4 27265.6 4340.7 30389.5 28495.5 4705.97 33179.7 26750 
29395.2 24287.2 44959.9 27984.4 20804.7 48670.2 6611.2 21304.1 24842.8 
7875 21062.5 22053.7 29072.4 23050 44501 27855.5 19000 42734.4 
6580.89 24523.2 20987.8 8132.81 23778.8 17984.4 28998.2 36464.9 27451 
27536.8 35757.8 23140.6 4892.73 29276.7 21760.2 5243.25 31632.8 18500 
30470.1 33494.4 29875.2 29588 30085.9 26750 30014.1 23328.2 38411.8 
28552.6 20289.1 38093.8 16401.3 41631.3 19482.9 13804.7 40193.2 16437.5 
29930.7 22966.2 37443.9 29336.3 22093.8 34226.6 29438.8 22651.8 34702.9 
28582.5 23898.4 29585.9 6096.92 25049.5 21839 6328.12 26683.8 18500 
27696.7 35406.6 23682.9 26437.5 33695.3 20151 5601.3 20545.5 29867.8 
6981.94 16421.9 31390.6 23405.4 39863.5 19759.5 23403.6 37304.7 16953.1 
5082.06 30549 19999.7 6070.31 29267.1 17210.9 24348.2 39602.9 21395.7 
21281.2 42256.8 21335.9 29367.1 22261.2 34369.5 27521.3 19257.8 35257.8 
4869.73 33095.9 26942.9 5812.5 36866.4 24945.3 5330.81 31433.9 18663.9 
6271.41 32921.9 15921.9 11298.7 40434.2 25495.6 8132.81 39160.9 24945.3 
7903.05 21055.5 22417.5 10512.9 20546.9 19273.4 28946.5 23954.5 30787.1 
29531.2 26703.4 28296.9 7869.84 24104.8 18434.4 9247.59 24671.9 15406.2 
28184.4 20344.5 43891.1 26467.4 16164.1 45570.3 11119 40295.9 24179.2 
11484.4 39997.3 20046.9 5983.89 29547.4 17562.7 7359.38 28796.9 14345.1 
5152.5 34227 26343.6 4923.56 34468.8 22882.8 28651.1 20730.4 38179.7 
26437.5 17580 38093.8 6946.77 29022 15310.3 8132.81 26734.4 15006.1 
23217.5 37462 17353.8 22736.3 34210.9 14375 28665.7 21119.9 34707 
26801.5 19257.8 31906.2 6843.65 17019.5 31553 8065.78 13843.8 33710.9 
28548.7 23715 29897.6 26806.7 22351.6 26750 6159.31 32411.8 16337.4 
7285.12 32148.4 13601.6 26465.3 33585.8 20668.4 24738 30859.4 16953.1 
6928.11 32586.6 14597.5 8192.62 34468.8 12312.5 6940.48 16601.2 31439.3 
9164.06 15339.1 28812.5 9082.59 39542.9 25110.4 8132.81 39134.1 22625 
7252.23 32083.1 13820.7 8350.41 30085.9 11539.1 5173.54 34672.9 23841.4 
6136.31 36531.2 21078.1 26438.4 17902.9 38121.2 23910.9 15132.8 38093.8 
27186.5 19592.5 32994.8 24890.6 16993.2 32679.7 7601.31 15050.5 32890.9 
6585.94 14845.1 36289.1 26438 16417.8 45239.5 24890.6 13486.9 45828.1 
8148.59 14073.9 33574.9 10083.9 11781.2 35257.8 27506.5 23262.7 27670.3 
26455 24671.9 23656.2 26725 19270.6 32223.7 24632.8 17938.8 29585.9 
26778.6 19261.6 32001.5 26813.9 20546.9 29328.1 24769.3 31515.3 17275.8 
22875.6 30085.9 13859.4 25339.4 14616.7 45237.7 23343.8 12554.7 43419.1 
6285.53 36446.2 21308.2 7494.47 37820.3 19531.2 13922.6 40107.5 16879.6 
12000 38654.6 15406.2 6970.39 14558.3 35851.3 6798.38 13585.9 38609.4 
12754.5 39060.6 15498.4 11484.4 37092.2 11539.1 24701.8 18114.1 29641.5 
23085.9 17423.2 27523.4 23861.8 13041.2 44248.6 22054.7 10874.8 44796.9 
26818.2 24688.4 24595.7 27021.2 27507.8 22625 6877.47 14033.2 37340.7 
9537.38 11523.4 38609.4 23898.2 30857.8 15704.2 22828.1 26642.6 15406.2 
26850.9 22454.6 27109.6 24973.1 20289.1 26492.2 22991.6 30356.1 14071.9 
21148.2 30085.9 10765.6 26944.1 26436.4 23373.9 25460.9 26476.6 20304.7 
23149.1 27907.1 15495.7 21342.1 26476.6 12828.1 12226.4 38776.4 15433.9 
8906.25 37820.3 16555.1 6845.09 13516.6 38359.4 6843.75 11461.6 41445.3 
23305.7 17629.5 27770.5 21539.1 17564.5 25203.1 24283 17968.7 29080.2 
21539.1 15336 29585.9 22924.4 27022 15433.1 22845.7 24414.1 17210.9 
6844.16 12078 40519.6 9857.06 9718.75 41703.1 26886.2 25632.3 23935.9 
28502.1 28023.4 24945.3 24747.4 31056.1 17049.9 24792.7 28023.4 17984.4 
22894.5 26031 16108.6 21326.6 23898.4 15406.2 21411.9 29827.8 11405.7 
19476.6 27721.3 8960.94 22069 17584 25973.3 22312.5 19629.1 22882.8 
22637.9 17605 26800 19784.9 15390.6 26750 21698.1 17570.4 25434.2 
18703.1 16568.3 23914.1 21767.4 15603.9 29857.2 19218.8 13283.8 31132.8 
27936.2 27546.3 24447.6 28500 30593.3 23914.1 19601.6 16868.9 24370.1 
18703.1 18226.6 21193.6 19509.9 13836 30644 16382.8 12753.7 30101.6 
26564 24676.8 23938.1 24375 22443.3 22109.4 24828 23105.7 22314.4 
23389.1 22867.2 20046.9 18571.7 13511.3 30481.3 16898.4 11779.2 33195.3 
26978.5 27434 22730.4 26953.1 30271.6 21078.1 19003.3 13660.7 30556.1 
17929.7 14101.6 28249.4 23527.8 22751.1 20478.6 21605.1 21578.1 18757.8 
17640.3 12385.8 32642.4 18014.2 11781.2 36031.2 21934.5 21699.3 19294.6 
20250 20181.8 19273.4 21703.9 21614.5 18918.9 19476.6 21517.3 16437.5 
20321.5 20462.2 19170.9 17512 19257.8 18500 16728.5 42375 48151.6 
18552.6 45039.1 52531.2 16150.1 45464 50614.2 15351.6 45247.4 48148.4 
17750.1 43359.2 49622.4 20507.8 44266.7 50210.9 15639.3 45168.4 48509.6 
15867.2 44265.6 45972.5 12056.9 42572.2 46049.2 14062.5 43598.4 44796.9 
20505.6 43242.5 47424.4 22054.7 43083.8 48921.9 19968.6 43497.9 47393.8 
21281.2 41884.5 44281.2 13701.5 43250.2 44918.5 15351.6 43090 43250 
12022.2 42505.8 45074.6 11951.5 41687.5 42218.8 14592.5 43163.6 44017.5 
14062.5 42265 42218.8 11771.2 41672.1 42627.3 11226.6 40697.5 40414.1 
18145.5 41934.6 42310.6 20507.8 41231.7 42218.8 8703.4 38704.7 41758.8 
9421.88 39485.8 39382.8 24719.4 39737 44663.6 25972.4 39367.2 46085.9 
24046.3 39617.6 41789.3 24197.6 39109.4 39640.6 18699.3 41305 40260.5 
17414.1 40728.4 38093.8 24189 39442.3 41729 25732.1 38593.8 41703.1 
17524.2 40918.8 38252.9 16705.6 40914.1 36804.7 19191.7 41051.3 39543.3 
21023.4 40203.5 39898.4 17095.7 41171.4 34241.1 15351.6 41230.7 35257.8 
7632.97 37450.3 39456.5 5812.5 34984.4 39699.4 24186.8 39285.2 39850.4 
24375 39011.4 37320.3 24144.2 39193.1 38133.7 23197.3 39625 36804.7 
16655.8 41205.2 33977.6 15351.6 41230.7 33195.3 13362.4 41191.1 35707 
13289.1 41220.3 34484.4 6395.47 30481.6 44144 5727.94 29054.7 42476.6 
28461 36332.3 40361.6 30423.3 33953.1 40414.1 23481.4 39495.5 37203.4 
24117.2 39687.9 34742.2 29175.8 35677 39299.1 29067.2 36273.4 37062.5 
5811.67 29187.3 42825.5 5039.06 27250 41753.7 5592.33 31912.9 41021.8 
5039.06 32148.4 39172.4 24253.3 39644.3 34971.9 25148.4 39697.2 33453.1 
30775.9 34382.2 36714.2 30304.7 35901.2 35515.6 27776.2 37662.8 37223.6 
28757.8 37562.5 35285.7 16269.3 41178.1 30119.7 14062.5 41230.7 30875 
11738.8 40697.7 34894.4 9679.69 39699.2 33968.8 9480.55 39377 39735.6 
11226.6 40214.9 37320.3 5510.96 26306 43777.8 4722.47 24929.7 41960.9 
5258.41 32282.6 39596.5 5222.62 33695.3 37578.1 5033.59 30296.8 39303.4 
4207.87 29828.1 36804.7 5166.01 33092.6 38140.2 4728.66 32921.9 36546.9 
4489.92 31431.9 30871.8 4207.87 28281.2 31648.4 27336.4 38205.2 35925.2 
27726.6 38677.3 33195.3 14191.2 41154.9 30633.3 12000 41020.3 30875 
13176.2 41139.3 34793.5 12257.8 40731.5 32937.5 17632.4 41291 29190.2 
17414.1 41736 26750 4430.83 28224.8 38392 4207.87 27250 36804.7 
4284.08 28879.2 31258.3 4207.87 26476.6 30359.4 5923.46 24445.3 48060.4 
5812.5 23640.6 49570.5 30650.5 27628.6 42379.4 31593.8 28023.4 40444 
31558.5 30033.5 34467.6 32109.4 28977.3 37062.5 31363.1 31695.3 35017.5 
31622.6 31375 32164.1 23329.2 41461.7 25529 22647.7 42203.1 23656.2 
[...]
CELL_DATA 1299
SCALARS radius float
LOOKUP_TABLE default
0.128827 1.14749 0.0631795 0.791234 0.0655323 1.00356 0.0477706 0.875777 0.0909044 
0.784683 0.0613062 0.870385 0.0501644 0.69693 0.0741975 0.775809 0.0662065 0.682029 
0.0716552 0.42717 0.0487398 0.870054 0.0715971 0.673677 0.0412169 0.860905 0.0699341 
0.419454 0.0636424 0.722479 0.0623324 0.351434 0.139029 0.493542 0.0566576 0.270704 
0.0850995 0.344027 0.0915845 0.724852 0.0732349 0.713992 0.0839606 0.635511 0.0765355 
0.57034 0.0640529 0.302905 0.114748 0.616404 0.0757185 0.564589 0.070618 0.723935 
0.0708687 0.613843 0.0720744 0.483223 0.0695979 0.192601 0.119479 0.302329 0.146747 
0.720936 0.0571115 0.709557 0.057389 0.359574 0.0521279 0.568464 0.0836883 0.703391 
0.0792912 0.547026 0.072103 0.444746 0.0610702 0.471818 0.134028 0.462491 0.088054 
0.717 0.119666 0.659015 0.0759202 0.508978 0.0623632 0.71826 0.0560114 0.398586 
0.0629929 0.341973 0.0707577 0.499686 0.0748982 0.541647 0.0499794 0.38588 0.0848834 
0.423062 0.0928077 0.448942 0.0728963 0.198334 0.106345 0.56547 0.0634339 0.432061 
0.119418 0.445979 0.0708511 0.672908 0.0494424 0.309607 0.116386 0.537957 0.0779915 
0.535522 0.100008 0.351793 0.0951521 0.350611 0.099411 0.381658 0.0532241 0.385307 
0.131957 0.28083 0.0981821 0.355892 0.0623655 0.359524 0.0791373 0.520113 0.0726351 
0.406771 0.0816576 0.279795 0.153429 0.671031 0.0821206 0.405454 0.0766867 0.657362 
0.0492201 0.655507 0.0783764 0.367227 0.145047 0.506022 0.0536763 0.474231 0.0735303 
0.387827 0.102716 0.398858 0.100366 0.427766 0.117454 0.535513 0.0752617 0.366202 
0.0860061 0.336389 0.110785 0.349772 0.119814 0.260627 0.178433 0.499985 0.137529 
0.326054 0.0855849 0.352405 0.071862 0.248958 0.0905924 0.286396 0.0997453 0.356122 
0.0959598 0.262518 0.0877215 0.27298 0.179401 0.344326 0.0899438 0.531856 0.0583214 
0.472744 0.0887964 0.490952 0.0692335 0.334777 0.096193 0.494601 0.0823704 0.330683 
0.176568 0.260009 0.107767 0.233495 0.107023 0.312972 0.132933 0.324361 0.0687716 
0.252706 0.146064 0.525968 0.0966054 0.43098 0.112368 0.315588 0.13537 0.280146 
0.10326 0.48887 0.0660889 0.517901 0.0539709 0.140236 0.13679 0.481809 0.0815214 
0.292935 0.143974 0.30857 0.120373 0.384512 0.093874 0.382784 0.0991768 0.37368 
0.126624 0.512511 0.0881013 0.282964 0.160841 0.473568 0.0807576 0.372862 0.186341 
0.461775 0.109943 0.207851 0.15047 0.301862 0.151274 0.29546 0.146939 0.414006 
0.117121 0.28271 0.121334 0.330216 0.162373 0.41187 0.0879458 0.509608 0.0898432 
0.32452 0.176861 0.313683 0.217294 0.375201 0.0894399 0.237404 0.0844939 0.269255 
0.170657 0.247704 0.227256 0.402533 0.0830727 0.410522 0.158221 0.336038 0.10664 
0.394367 0.120231 0.300099 0.142328 0.326058 0.15167 0.382171 0.163323 0.376539 
0.116261 0.370719 0.108307 0.331573 0.105867 0.214478 0.183616 0.378163 0.0996553 
0.366868 0.0976927 0.3178 0.18604 0.363694 0.125269 0.304174 0.188647 0.27128 
0.229876 0.22021 0.130757 1.00517 0.0715651 0.204406 0.121639 0.161686 0.0717168 
0.244 0.0734438 0.871443 0.0862574 0.875667 0.0602288 0.219345 0.079433 0.149175 
0.0869948 0.216565 0.0749219 0.144834 0.13351 0.106893 0.103613 0.729987 0.0546831 
0.861821 0.0939363 0.257602 0.0686482 0.680671 0.0719529 0.171061 0.0758322 0.152395 
0.0952793 0.67772 0.0802979 0.157129 0.107765 0.724103 0.0853135 0.222875 0.0998202 
0.220682 0.0941609 0.137998 0.106817 0.264363 0.0843932 0.339796 0.0843393 0.618791 
0.0934666 0.213653 0.100966 0.616104 0.104343 0.20397 0.0808228 0.201304 0.0774113 
0.207374 0.159 0.569604 0.103461 0.246774 0.0715073 0.560236 0.0769078 0.218151 
0.119872 0.210523 0.0684567 0.198573 0.128229 0.199161 0.126728 0.256483 0.13573 
0.176217 0.150908 0.709164 0.0927015 0.226554 0.0679781 0.185517 0.106371 0.20078 
0.103754 0.136444 0.131566 0.230274 0.120539 0.199233 0.0757829 0.231089 0.150341 
0.674764 0.0917997 0.260437 0.090611 0.355297 0.12091 0.459544 0.0745527 0.210035 
0.145922 0.203271 0.0816974 0.157395 0.129775 0.199102 0.159479 0.461965 0.115538 
0.508734 0.0544502 0.136477 0.10183 0.246533 0.121458 0.224549 0.0852474 0.202009 
0.0838486 0.302675 0.0823904 0.202122 0.139883 0.264603 0.154412 0.44275 0.0656056 
0.211544 0.135168 0.27626 0.134697 0.377787 0.103919 0.373654 0.102169 0.236286 
0.0923089 0.396243 0.117253 0.150532 0.140937 0.146295 0.142207 0.222145 0.105142 
0.171115 0.0890848 0.198657 0.140103 0.265145 0.0967808 0.233333 0.126362 0.516783 
0.0578619 0.397659 0.109503 0.35734 0.138765 0.138996 0.108904 0.257863 0.0800219 
0.228068 0.0930978 0.258476 0.134401 0.192142 0.135209 0.199008 0.111888 0.15801 
0.110124 0.162872 0.117591 0.232206 0.0841955 0.175419 0.138346 0.252841 0.152592 
0.245038 0.125629 0.255979 0.135424 0.330435 0.134405 0.16715 0.161586 0.146193 
0.0753538 0.24298 0.136586 0.256652 0.136533 0.152949 0.146616 0.277141 0.15302 
0.209123 0.18758 0.173375 0.132899 0.50409 0.0765586 0.441418 0.10844 0.229005 
0.111268 0.324321 0.138939 0.259102 0.136118 0.244582 0.13788 0.14587 0.138471 
0.181289 0.167304 0.258034 0.084915 0.222467 0.164861 0.186907 0.174391 0.24423 
0.194431 0.27714 0.159731 0.224119 0.169969 0.258187 0.139705 0.309281 0.151934 
0.235953 0.168995 0.131501 0.128398 0.184635 0.146568 0.301041 0.133569 0.255834 
0.124631 0.238449 0.151692 0.231865 0.153939 0.26995 0.173141 0.206435 0.185366 
0.146097 0.133759 0.298453 0.183856 0.332575 0.170528 0.212588 0.200008 0.258165 
0.187761 0.234052 0.185849 0.387567 0.13385 0.198213 0.1419 0.267956 0.157124 
0.290811 0.137054 0.254299 0.173745 0.24858 0.12525 0.260358 0.17842 0.251054 
0.184831 0.21186 0.202654 0.206592 0.178053 0.242389 0.192703 0.279743 0.136481 
0.16949 0.0862686 0.785507 0.0609959 0.156871 0.115478 0.697283 0.0801521 0.203289 
0.0546824 0.166541 0.0995679 0.776738 0.056063 0.153716 0.100927 0.188437 0.0571308 
0.261981 0.0960643 0.184403 0.144572 0.151335 0.09268 0.116635 0.112482 0.425096 
0.0719781 0.16961 0.100417 0.139138 0.118903 0.421501 0.102786 0.176917 0.0790089 
0.171222 0.0928128 0.354627 0.106075 0.724619 0.0806805 0.488932 0.0733692 0.566336 
0.0906967 0.226368 0.0924768 0.270217 0.0486568 0.486422 0.0872601 0.139767 0.124155 
0.167538 0.0708971 0.167541 0.0965941 0.222785 0.0937141 0.14434 0.138398 0.199045 
0.107001 0.254973 0.101363 0.197841 0.123249 0.167051 0.12929 0.167447 0.110645 
0.160452 0.116733 0.150365 0.144769 0.195681 0.130466 0.720207 0.0933279 0.149486 
0.143976 0.566552 0.101303 0.156549 0.152154 0.207566 0.17949 0.169378 0.0938781 
0.187223 0.110552 0.174045 0.160767 0.181752 0.127457 0.663743 0.0622787 0.220355 
0.148536 0.192305 0.125618 0.182782 0.121675 0.183756 0.0916528 0.150736 0.143036 
0.136228 0.120611 0.434918 0.117209 0.188299 0.167438 0.710903 0.075287 0.126782 
0.117231 0.190392 0.107785 0.133257 0.10943 0.358928 0.105174 0.187859 0.144909 
0.152408 0.103406 0.355233 0.102034 0.145166 0.125836 0.155647 0.127398 0.180666 
0.115611 0.163817 0.148487 0.147143 0.14145 0.203748 0.0995016 0.233576 0.142186 
0.21291 0.120962 0.303942 0.081215 0.169229 0.156884 0.402263 0.117908 0.232991 
0.117071 0.254583 0.121587 0.350224 0.128749 0.211924 0.138942 0.13801 0.133627 
0.353932 0.115608 0.219541 0.128528 0.232763 0.135242 0.134663 0.131758 0.350503 
0.0907882 0.341251 0.154112 0.211975 0.109325 0.203252 0.132413 0.182046 0.167746 
0.173833 0.15676 0.197025 0.174643 0.23079 0.103399 0.170127 0.132435 0.240423 
0.156897 0.226992 0.0986395 0.15661 0.147437 0.166573 0.100778 0.164212 0.150436 
0.249133 0.132508 0.255951 0.179062 0.219603 0.168789 0.177292 0.110298 0.22806 
0.210397 0.387234 0.125548 0.18093 0.167166 0.309913 0.141414 0.275028 0.174637 
0.18515 0.178994 0.266811 0.148748 0.215588 0.173178 0.134579 0.129042 0.161237 
0.153968 0.276163 0.186036 0.2195 0.160119 0.219602 0.204562 0.285676 0.150818 
0.244539 0.230461 0.232919 0.161404 0.270914 0.167331 0.249391 0.217723 0.21958 
0.206463 0.300656 0.155481 0.185685 0.17966 0.281129 0.158155 0.301026 0.138968 
0.264287 0.243872 0.320258 0.114837 0.237087 0.18097 0.257207 0.0959696 0.250945 
0.166519 0.228746 0.203923 0.260249 0.150157 0.192065 0.182669 0.500334 0.110047 
0.220904 0.176889 0.300777 0.174558 0.247594 0.232917 0.153031 0.110471 0.102526 
0.0947561 0.208571 0.0875879 0.13239 0.124966 0.155803 0.0926178 0.153525 0.0872179 
0.870712 0.0906273 0.15057 0.133617 0.27699 0.0869467 0.681153 0.0874658 0.861113 
0.0773758 0.229506 0.100591 0.861449 0.0908058 0.274104 0.0911366 0.129776 0.120498 
0.11924 0.116476 0.635968 0.0821508 0.189957 0.0947383 0.136598 0.124458 0.493038 
0.0536676 0.268833 0.0984152 0.143731 0.112167 0.724285 0.0819797 0.115929 0.111961 
0.614403 0.0858898 0.131153 0.116755 0.134401 0.125229 0.164614 0.0934912 0.56556 
0.0975893 0.152684 0.13997 0.13525 0.126531 0.161795 0.147269 0.213746 0.116942 
0.1945 0.183044 0.209189 0.108049 0.549527 0.0673056 0.129712 0.111051 0.718802 
0.0943427 0.717464 0.089415 0.191855 0.170465 0.200358 0.186086 0.358451 0.106413 
0.196781 0.108462 0.31543 0.119492 0.1654 0.129361 0.145679 0.131315 0.162679 
0.123804 0.17843 0.13704 0.354644 0.102184 0.176734 0.128539 0.398194 0.0973941 
0.12492 0.116336 0.127666 0.124275 0.18134 0.117136 0.130312 0.121479 0.201581 
0.116014 0.271174 0.112262 0.18512 0.0960219 0.198057 0.135828 0.184741 0.156533 
0.146772 0.137551 0.197182 0.168593 0.148845 0.1299 0.218489 0.13153 0.182916 
0.123485 0.203631 0.110522 0.133856 0.0645947 0.477649 0.105726 0.189784 0.168896 
0.169183 0.136526 0.17041 0.160855 0.131569 0.126159 0.255897 0.141941 0.173323 
0.153295 0.150345 0.139098 0.202906 0.180494 0.217481 0.158944 0.293909 0.1238 
0.166757 0.141609 0.188078 0.12002 0.215695 0.163292 0.184407 0.176132 0.157906 
0.132217 0.170328 0.110888 0.16207 0.155287 0.259812 0.111867 0.155971 0.13497 
0.490285 0.100591 0.282227 0.128827 0.148354 0.133541 0.483679 0.109341 0.444921 
0.127323 0.222655 0.114812 0.178461 0.163578 0.313668 0.113968 0.179481 0.168943 
0.144309 0.137106 0.238554 0.18396 0.183908 0.176437 0.187516 0.117349 0.222576 
0.204118 0.224178 0.214641 0.173701 0.157393 0.24926 0.230179 0.20772 0.187706 
0.261954 0.232999 0.170741 0.159738 0.51445 0.115337 0.219884 0.118204 0.254166 
0.141971 0.379528 0.141457 0.205522 0.196438 0.20432 0.179702 0.180933 0.140517 
0.221668 0.1884 0.251087 0.173847 0.226512 0.201088 0.396802 0.104554 0.327207 
0.160917 0.23709 0.151264 0.194868 0.180548 0.273104 0.216229 0.240948 0.208149 
0.279217 0.165848 0.170199 0.161532 0.334018 0.137528 0.201236 0.177314 0.246176 
0.217588 0.210592 0.146574 0.231937 0.21906 0.178267 0.172038 0.162055 0.142983 
0.25341 0.214246 0.262066 0.180195 0.170502 0.115072 0.150854 0.117764 0.784924 
0.0763724 0.213047 0.0841934 0.223786 0.0867996 0.118483 0.100712 0.141349 0.129278 
0.10664 0.101203 0.776068 0.0775851 0.143658 0.129439 0.264576 0.0814172 0.148107 
0.145218 0.159847 0.081685 0.19832 0.0868697 0.426749 0.0965344 0.16542 0.116571 
0.124559 0.115969 0.146849 0.132034 0.143296 0.128925 0.356662 0.0917506 0.136761 
0.110224 0.114057 0.111009 0.305202 0.0860431 0.166559 0.08969 0.121439 0.111761 
0.615105 0.0926667 0.214664 0.0969501 0.146025 0.132437 0.199068 0.156987 0.269778 
0.074905 0.147782 0.13397 0.140309 0.132798 0.207859 0.0714186 0.135341 0.129231 
0.703884 0.0901178 0.720684 0.0905777 0.181003 0.120095 0.180405 0.110425 0.150258 
0.12695 0.131149 0.124952 0.444152 0.0938696 0.137432 0.130676 0.157855 0.130606 
0.153048 0.14163 0.122711 0.11379 0.161316 0.144134 0.147077 0.138311 0.536423 
0.0919266 0.538942 0.0949618 0.207609 0.17833 0.142015 0.134807 0.281587 0.107529 
0.133306 0.121255 0.44781 0.103135 0.173173 0.153064 0.153075 0.1437 0.170712 
0.141799 0.172594 0.162056 0.173947 0.167194 0.263339 0.120775 0.13314 0.127604 
0.408436 0.114007 0.197983 0.159775 0.168929 0.152814 0.475916 0.10448 0.171148 
0.139893 0.175625 0.115197 0.171334 0.151842 0.176973 0.158706 0.161817 0.145414 
0.275682 0.0939872 0.171868 0.160961 0.156127 0.143831 0.173069 0.126041 0.19543 
0.131178 0.136808 0.108263 
