# vtk DataFile Version 4.1
vtk output
ASCII
DATASET POLYDATA
POINTS 1300 float
16125 47875 54078.1 15093.8 45354.6 51500 15403.1 46110.7 52273.4 
19764.3 43750 46859.4 15186.6 45581.5 51732 12000 42736.3 44796.9 
17836.7 44370 48140.7 16898.4 42276.3 42476.6 12599.3 42705.1 44967.2 
11226.6 40697.5 40414.1 19200.3 43544.9 46929.6 23859.4 39672.4 41960.9 
12187.5 42102.8 43601.3 8132.81 37627.5 43507.8 11093.7 40822.7 41145.4 
7875 38078.1 37669.9 22461.6 40834.1 43451.5 27327.5 38078.1 45570.3 
21483.2 41647.4 44494.9 20250 40204.6 37062.5 11186.7 40735 40633.5 
15093.8 41230.7 36031.2 9011.02 37996.6 43720.4 6585.94 31632.8 44845.3 
8283.48 36087.4 44057.8 5296.88 33437.5 39671.6 8183.14 38050 37817.9 
5296.88 34841 34226.6 25624.1 38685.7 44190 30105.7 33953.1 42218.8 
27308.9 37015.8 42840.4 29015.6 35884.7 38351.6 21294.3 40809.2 37997.1 
22570.3 40715 31906.2 14183.2 41096.8 36552 16125 41230.7 30875 
13044.5 40959.3 38102.9 11148.2 40656.2 34226.6 6899.85 31969.3 44557.9 
5554.69 25445.3 44311.2 6261.3 33679.2 41238.5 4719.37 28539.1 39898.4 
28503.6 36224 39698.2 26695.3 38621.6 35515.6 5923.67 35041.7 34763.1 
4207.87 30085.9 31132.8 5881.18 27670.8 43960.2 4523.44 25031.8 41187.5 
29226.9 34325 42652.9 30820.3 28952.6 43765.6 28862 35986.5 38755.6 
32109.4 32258.8 36289.1 22234.2 41033.6 32556 22828.1 41745.2 27265.6 
16103.3 41378.9 31113.7 17414.1 41676.2 27523.4 11202 40475.9 35020.5 
7875 38783.5 32421.9 5652.66 26113 44205.9 6070.31 22351.6 47938.1 
4671.11 31424 31571.6 4207.87 30085.9 27265.6 28969.5 35915.2 38472.7 
30562.5 36397.2 33453.1 11164.3 40602.1 34464.8 10710.9 40685.1 29328.1 
17020.8 41587 28600.5 13804.7 41226.5 24945.3 30648.9 33232.6 37638.5 
31651.5 27765.6 38351.6 31671.2 32550.9 36693.9 31444.2 28796.9 33195.3 
8401.35 38694.4 32820.3 5952.75 36531.2 30875 5064.12 29493.8 39718.9 
4207.87 25445.3 36031.2 4346.89 30487.4 31264.4 4207.87 24671.9 30617.2 
4444.13 29904.6 28411.8 4736.91 25445.3 24687.5 30209.6 29767.7 43722.2 
29531.2 24414.1 45601.2 22812.1 41454.5 27972.1 23859.4 41040.9 22109.4 
29989.5 36358 34158.7 29541.6 37046.9 28812.5 15026.8 41363.5 26334.3 
16640.6 41745.2 21851.6 4278.72 30031.5 27609.5 4265.62 29799.3 22625 
29479.5 37013.2 32147.3 27210.9 39709.6 30101.6 8032.89 38756.8 32541.4 
7875 38976.3 28812.5 14171.3 41267.6 25362 10453.1 40204.6 24687.5 
5147.14 32798.7 32784.4 4723.5 33695.3 29328.1 4569.95 25059 30588.3 
4974.09 21578.1 30101.6 15979.8 41607 22331.1 16125 41687.5 18441.2 
4870.04 26144 25765.2 6252.84 21835.9 25203.1 29518 37034.1 30079.7 
30108.8 33179.7 28039.1 5395.56 24506.9 25551.6 7359.38 22954.8 20562.5 
23793.2 40665.6 23396.8 25406.2 37562.5 19998.4 31156.2 28544.8 38159 
30046.9 22787.8 38351.6 23839.5 40928.3 22495.6 22078.4 41171.9 19273.4 
29570 25270.8 44800.8 28500 20208.6 43507.8 4406.49 30151.8 23027.2 
4757.53 30859.4 19789.1 29542.9 24671.1 45361.1 28042.1 21320.3 48148.4 
6141.26 24126.7 23107 5812.5 25671.2 20562.5 29534.5 37043 29192.7 
28040.1 36015.6 24171.9 29876.8 27733 44611 29431.2 26476.6 47375 
4982.34 22084.8 30405.1 5812.5 18484.4 31330.8 31138.3 29204.1 33665.2 
30092.2 25960.9 30875 6099.19 22337.7 25541.7 7298.53 18742.2 26750 
22606.7 41098.8 20240.1 23085.9 38491.7 17468.8 30182.4 24100.6 37866.5 
28875.4 21062.5 35257.8 13914.7 41238.9 25070.3 12515.6 40671.7 21593.8 
28607.9 36406 26079.8 28757.8 32664.1 24635.9 7319.26 23198.2 20888.6 
9421.88 22433 17984.4 25097.3 37895 20922.8 26310.7 33953.1 20046.9 
4846.53 30589.6 20230.2 6070.31 30297.3 16695.3 7737.12 38726.4 29386.2 
6585.94 37614.1 25718.8 29372 22217 36249.1 27843.1 19000 37835.9 
15934.2 41529.7 18619.6 15609.4 41216.2 14632.8 6135.59 25207.3 20983.8 
7298.53 26218.8 17210.9 5907.79 18900.5 31340.1 7101.56 15855.7 32421.9 
28323.7 20558.2 43529.4 26953.1 17118 42476.6 7176.02 19820.1 26081.4 
9421.88 17453.1 24994.8 30079.6 26382.1 31375.7 27984.4 22714.6 29070.3 
4229.12 30069.6 27368.8 4724.53 33953.1 24687.5 5703.19 30385 17755.8 
6303.38 33437.5 15664.1 22920.5 38776.8 17877.4 22828.1 35500 15043.3 
6965.85 23476.7 21554.1 9421.88 19773.4 21696.9 28799 21234.1 35431.4 
26804.6 18742.2 33453.1 8778.79 21082.2 21343.7 10968.8 19863.2 19531.2 
25837.1 34692.6 19994.6 25268.1 31632.8 17984.4 7297.09 25641 18098.3 
10195.3 24620.3 14117.2 16067.8 41640.2 18494.7 19218.8 42247.5 18242.2 
27296.4 18116.3 43133.8 25978.6 15648.4 44539.1 6070.31 30132.5 16960.1 
7617.19 28750.5 14117.2 12818.9 40577.2 21840 12000 39685.8 18500 
27914.7 19504.3 37443.5 25406.2 16398.2 38093.8 6361.43 17743.5 31751.2 
8648.44 15648.4 29276.6 6359.06 32793.8 15867.9 7858.5 34726.6 13085.9 
4710.09 32927 24679.3 5239.12 34726.6 21593.8 27219.5 19411.7 33590.2 
25921.9 18718.5 30617.2 6879.54 16422.1 32220.7 6840.66 14617.2 35257.8 
28612.9 23814.8 29761.9 26695.3 23593.2 25460.9 6855.4 15303.1 34103.7 
8906.25 12788.8 34484.4 25208.2 32631.5 18290.9 23418 31117.2 15148.4 
7050.31 29603.9 14978.7 8319.47 30601.6 11539.1 16442.4 41703.8 21995.4 
20250 42260.9 23914.1 25990.2 15656.9 44490.6 24890.6 13563.3 45570.3 
12606.6 40643.4 21667.6 8558.72 39109.4 21335.9 26929.1 18943 33494.3 
24764.8 16679.7 32937.5 8421.87 15797 30155.1 10453.1 13785 29585.9 
5284.81 34572 22282.5 6585.94 37093.3 20562.5 12401.6 39925.9 19077 
13289.1 39681.7 16179.7 27011.2 24020.6 25830.2 26179.7 24929.7 23093.2 
25867 16951.4 38250.1 23859.4 14359.4 40464.6 7780.85 34465.2 13692.7 
10195.3 36586.9 12054.7 6837.77 14839.9 35158.6 6774.66 14101.6 38093.8 
25220.5 14191.4 45246.4 22892.1 12296.9 43250 25496.5 17616.8 32787.1 
23343.8 16421.9 30153.1 6808.69 14500.2 36508.8 9031.03 12039.1 37578.1 
23962 31140.6 16176.1 22828.1 27498.5 14632.8 23501.2 31055.1 15229.4 
22341.4 30601.6 12570.3 6602.75 36573.8 20535.4 8132.81 38119.4 18500 
26609.4 24957.8 24060.2 26695.3 27922.4 21593.8 23816.7 16879.3 30424 
22570.3 17385.1 27007.8 6320.08 33244.4 15725.2 6843.75 36015.6 16903.6 
6829.62 14019.1 37918.4 7101.56 12743.4 39898.4 23409.3 12620.1 44129.2 
20765.6 9869.31 44539.1 26464.2 25894.8 22868.5 25406.2 25933.1 20304.7 
23168.3 28591.1 15095.8 23343.8 25960.9 16645.8 22768.3 27804.4 14652.4 
21161.6 25703.1 13085.9 22321.4 30422 12839.9 20613 29312.5 9734.38 
7244.7 12797.2 39580.4 8648.44 10667.5 41445.3 6943.37 35043 16223.4 
9164.06 37580 15664.1 22436.3 17263.7 27250.2 21023.4 17385.1 24945.3 
23485.6 16559.1 30234.4 20765.6 14617.2 29961.3 27748 23925.9 27638.8 
28500 27734.7 25203.1 25713.9 26212.3 20949.4 24958.7 28023.4 18500 
20879.1 29283 10464.6 19218.8 26962.3 8960.94 21447.3 17348.6 25636.8 
22312.5 19515.6 22967.4 21020.9 17345.4 25100.6 19218.8 17255.1 23140.6 
21247.4 14951.1 30235.1 18960.9 13257 31390.6 28524.6 32840.3 24708.1 
28053.5 30085.9 23656.2 22331.6 19284.7 23604.1 24117.2 22045.3 22367.2 
19488.8 17441.9 23272.8 17671.9 18415.3 20304.7 19646.9 13765.2 31044 
16125 12812.5 29514.8 19022 13330.9 31430.4 16898.4 11933.9 32937.5 
23581.5 21217.1 22738.3 22828.1 22258.8 19789.1 26168.6 34175 20031.2 
27009.8 31117.2 21078.1 18590.3 13479.4 30585.2 17929.7 14276.9 28039.1 
17535.5 12353 32485.4 18009.1 11781.2 35773.4 19299.8 17311.2 23180.3 
17712.1 15390.6 25203.1 23054.1 21946.3 20673.8 20250 20377.7 19015.6 
21091.2 20848.3 19513.1 19734.4 21561.6 16437.5 15850.7 47204.6 53392.3 
17671.9 45296.9 52649.8 17522.2 45723.7 52493.3 19218.8 44641 51242.2 
18982.8 44810.1 51209.4 20315 44007.8 49695.3 14820.8 44449.9 48048.4 
15609.4 44325.4 46343.8 20319.2 44048 49963.2 21852.6 43234.4 48921.9 
18220.1 43172.7 45222 19218.8 42566.1 44023.4 14219.7 43695.1 46109.8 
14578.1 43249.8 43765.6 21647.3 43245.8 48950.4 23343.8 41747.3 47117.2 
18985.2 42593.1 44094.4 19476.6 41589.5 42218.8 14445.2 43229.7 44109.8 
14320.3 42247.5 41703.1 17363.6 42373.8 42929.1 17671.9 41244.1 40414.1 
23155.1 41927 47540 25268.1 40140.6 46601.6 14133.7 42284.6 41919.8 
13546.9 41538 40414.1 23530.5 39907.3 42110.8 24205.9 39109.4 40156.2 
20493.5 40941.5 40318.2 19776.7 40656.2 39125 17347.4 41637.5 41005.6 
16125 41229.6 38351.6 8607.08 37826.8 43622.6 7823.44 37820.3 40929.7 
23895.2 39476.4 41055.3 26179.7 38113.2 40929.7 14918.8 41170.9 36291.3 
16640.6 41215.2 36289.1 7924.4 37577.6 41691.7 6585.94 36070.3 39640.6 
24181.8 39146.7 40182.4 24632.8 38668 38609.4 15848.6 41194.9 36290.1 
16898.4 41228.6 34484.4 7619.35 33765.2 44629 7789.41 32148.4 46601.6 
24497.5 38811.7 39081.3 23343.8 39367.2 37422.4 21155.3 40836.7 35563.3 
19992.2 40715 33968.8 7719.39 32296.2 46256.6 7617.19 30085.9 47942.2 
29701.4 34124.2 42418.5 30046.9 34468.8 40239.8 23948.1 39172.2 37832.6 
24117.2 39680.7 35257.8 20306.2 40797.8 34182.7 19992.2 41071.8 32421.9 
29984.4 34004.4 42278.7 31113.2 32148.4 41960.9 24076.6 39699.9 35370.5 
24117.2 40185 33453.1 5543.45 32101.7 40137.7 4723.5 31632.8 38609.4 
19932.6 41020.1 32680.7 18960.9 41230.7 30875 30774.5 32705.2 42056.2 
31151.3 32148.4 40414.1 24319.5 40008.9 33948.2 25664.1 40140.6 32196 
15109.5 41259.4 32983.7 13804.7 41230.7 30875 16263.1 41502.1 27739.3 
14062.5 41230.7 28296.9 12184.2 40694.6 37125 10453.1 40000.4 37062.5 
19373.2 41221 31192.7 19476.6 41687.5 28630 5546.85 33538.9 39801.6 
5222.62 33695.3 37578.1 5003.89 31545.7 39049.9 4207.87 29570.3 37062.5 
5188.08 33428.7 37928.6 4728.66 32921.9 36289.1 30023.3 31335.1 43072.3 
31335.9 29570.3 41753.7 31364.5 32755.5 36977.2 31652.5 33437.5 34484.4 
25153.1 40090.6 32861.9 27210.9 39173.3 32937.5 19629.1 41569.6 29094.8 
20765.6 41745.2 27007.8 6073.72 24051.4 47518.7 6270.37 23640.6 48921.9 
4423.3 27591.6 30594.3 4207.87 26476.6 28554.7 17312.5 41654.6 27611.7 
17671.9 41745.2 25460.9 30946.2 29701.9 41872.8 31444.2 28023.4 40671.9 
31566.1 33232.9 35232.2 31652.5 31890.6 33453.1 14223.9 41228.9 28118.5 
12123.7 40914.1 28296.9 31268.5 30187.7 37613.2 32137.2 29054.7 36804.7 
31608.4 31957.5 33661.5 31593.8 30595.4 32164.1 30390.6 36385.4 33664.8 
31136.9 34468.8 32164.1 31687.6 29244.2 37044.1 31593.8 26928.2 36031.2 
7833.65 38901.4 28984.6 9421.88 40000.4 27007.8 23773.9 41130 26026.5 
[...]
CELL_DATA 1299
SCALARS radius float
LOOKUP_TABLE default
0.0573174 1.14109 0.0531368 0.879242 0.0692712 0.930523 0.0830441 0.873477 0.0551443 
0.923223 0.0671393 0.873125 0.0724906 0.826848 0.0627468 0.845156 0.0904687 0.922305 
0.0914313 0.565015 0.0681501 0.459393 0.0536329 0.441011 0.0798483 0.727232 0.0674362 
0.831468 0.0547426 0.829763 0.05083 0.563406 0.0664645 0.501746 0.0507105 0.56484 
0.0636386 0.351704 0.0702238 0.313386 0.0927118 0.77467 0.0920786 0.726794 0.0722704 
0.316689 0.114689 0.469512 0.09072 0.769076 0.0787609 0.547372 0.0675729 0.494965 
0.0461819 0.362323 0.0653334 0.28311 0.131709 0.718939 0.0524291 0.447929 0.0704708 
0.183984 0.136855 0.493243 0.0640049 0.712636 0.0875615 0.448168 0.0710874 0.340814 
0.103063 0.23333 0.182463 0.491501 0.0806184 0.630653 0.0936923 0.431877 0.0607703 
0.54482 0.077574 0.43987 0.0774738 0.465592 0.0595497 0.489922 0.0681229 0.434458 
0.0740862 0.303137 0.0750036 0.383502 0.073889 0.724377 0.0619396 0.477669 0.068874 
0.347893 0.0715966 0.505653 0.0730987 0.398864 0.0983949 0.501075 0.0930931 0.533393 
0.0945778 0.630765 0.08097 0.33609 0.0737864 0.41601 0.0864101 0.454057 0.0867922 
0.206437 0.127114 0.436312 0.101239 0.35407 0.0669363 0.428432 0.0718451 0.475452 
0.0842496 0.447356 0.0676797 0.310402 0.0917667 0.334707 0.0824714 0.629273 0.0683046 
0.365471 0.0653765 0.34533 0.0941294 0.227978 0.139809 0.480413 0.0813024 0.446511 
0.082269 0.293044 0.158594 0.617856 0.0941949 0.280381 0.183821 0.372724 0.0918562 
0.471996 0.0770552 0.360465 0.124018 0.254101 0.170404 0.43285 0.0923002 0.282506 
0.0711437 0.443037 0.0790311 0.305161 0.130785 0.315081 0.145518 0.599889 0.0699338 
0.235097 0.166197 0.467949 0.11265 0.354525 0.135106 0.2146 0.174732 0.346728 
0.0460479 0.322924 0.091694 0.360955 0.112614 0.27137 0.0855549 0.469059 0.0690448 
0.376301 0.119184 0.281902 0.107957 0.593452 0.0753726 0.423373 0.0845661 0.421347 
0.0577691 0.412556 0.0843882 0.461555 0.0558544 0.321135 0.153743 0.261691 0.112959 
0.341356 0.132713 0.241089 0.106704 0.584529 0.0891362 0.301157 0.159095 0.218643 
0.125063 0.313301 0.0809349 0.368599 0.122371 0.258945 0.175985 0.285645 0.122554 
0.345256 0.0907154 0.302371 0.164932 0.584195 0.0732613 0.343556 0.102796 0.459307 
0.101612 0.326315 0.0846071 0.209492 0.193436 0.361209 0.15789 0.579551 0.0838712 
0.310649 0.108049 0.294165 0.0926361 0.293597 0.225441 0.356466 0.0670849 0.39183 
0.127908 0.270491 0.160039 0.284095 0.164843 0.291261 0.142803 0.308935 0.1237 
0.48506 0.0759038 0.406664 0.076884 0.386215 0.125404 0.345826 0.13172 0.25961 
0.23524 0.481729 0.0820314 0.356491 0.0584567 0.399519 0.0732156 0.286393 0.114768 
0.405115 0.137128 0.345581 0.167437 0.39224 0.167508 0.306911 0.0849436 0.390072 
0.110143 0.160614 0.153346 0.31561 0.101078 0.296221 0.197225 0.21403 0.181246 
0.355678 0.169491 0.332015 0.184581 1.14459 0.0666755 0.239425 0.063937 0.228014 
0.0546184 0.877998 0.0895773 0.226326 0.0710779 0.255343 0.0661714 0.877687 0.0531442 
0.21842 0.0712118 0.167243 0.0861294 0.209218 0.0727511 0.228756 0.0686969 0.20461 
0.167163 0.192983 0.109604 0.302141 0.0420767 0.565009 0.0679878 0.225048 0.0754439 
0.223595 0.0884989 0.287803 0.0820175 0.14351 0.0950931 0.215852 0.0740663 0.266174 
0.0776633 0.138193 0.121174 0.369477 0.0628411 0.265823 0.0901845 0.561908 0.070659 
0.190692 0.104812 0.217859 0.106511 0.263595 0.0644532 0.237611 0.0539069 0.209019 
0.0782464 0.243374 0.103692 0.286477 0.0790202 0.21482 0.0734663 0.20776 0.0965114 
0.241858 0.103862 0.496738 0.109353 0.483161 0.0738093 0.376018 0.098174 0.201492 
0.110707 0.193695 0.110155 0.221095 0.143643 0.172493 0.15599 0.45161 0.0802893 
0.472365 0.0685879 0.222728 0.164057 0.178758 0.163307 0.255164 0.128668 0.49098 
0.0598079 0.193181 0.0754926 0.220717 0.076853 0.248694 0.0565159 0.218561 0.105606 
0.635385 0.0818174 0.238816 0.0858492 0.130413 0.123157 0.177099 0.0974814 0.254253 
0.0934795 0.537094 0.108872 0.227219 0.108659 0.509907 0.102462 0.217117 0.12211 
0.539143 0.121182 0.21343 0.105179 0.484585 0.0994423 0.176722 0.134036 0.140881 
0.137241 0.32298 0.131251 0.187894 0.176657 0.395918 0.0648907 0.200551 0.0855455 
0.257586 0.0690551 0.133707 0.129384 0.189101 0.119101 0.187481 0.175725 0.236435 
0.0874178 0.36554 0.126121 0.222682 0.139404 0.26389 0.0903606 0.185733 0.163283 
0.279526 0.112893 0.175582 0.127814 0.236128 0.115992 0.627085 0.0721846 0.175811 
0.15868 0.223424 0.109177 0.202738 0.177584 0.252058 0.0699021 0.184648 0.0981699 
0.209906 0.08998 0.190417 0.144516 0.220549 0.0806372 0.285564 0.0893312 0.294697 
0.121827 0.276414 0.141657 0.598416 0.0916302 0.273755 0.0970328 0.247305 0.148636 
0.21794 0.0687066 0.270263 0.111631 0.228626 0.111621 0.226307 0.0896372 0.246401 
0.133642 0.409573 0.10979 0.239957 0.187507 0.216867 0.144576 0.288617 0.106593 
0.227944 0.210876 0.233451 0.21783 0.167871 0.16011 0.253931 0.132223 0.220891 
0.18021 0.211637 0.186217 0.208593 0.16284 0.273873 0.124806 0.229802 0.169449 
0.179856 0.173437 0.297267 0.103535 0.198217 0.16571 0.223052 0.127311 0.208936 
0.160385 0.212252 0.126213 0.219571 0.165897 0.24362 0.182206 0.213808 0.113566 
0.210955 0.126289 0.175789 0.168997 0.266368 0.157522 0.498263 0.0992307 0.208821 
0.196559 0.344171 0.106534 0.275795 0.133628 0.215055 0.19877 0.265624 0.168208 
0.252962 0.153074 0.24657 0.180482 0.201716 0.10786 0.282963 0.164574 0.305516 
0.136162 0.263036 0.156525 0.30467 0.12411 0.384339 0.154018 0.35534 0.153207 
0.203251 0.191841 0.170813 0.164259 0.286784 0.0761512 0.930665 0.0718682 0.878945 
0.0823923 0.878703 0.0799167 0.26596 0.0637902 0.11571 0.108849 0.122276 0.0928863 
0.922508 0.0803429 0.157337 0.152316 0.463845 0.0695768 0.460558 0.0904332 0.136656 
0.130606 0.141895 0.0963697 0.189473 0.0921516 0.301032 0.0709231 0.170777 0.0601103 
0.125188 0.106897 0.315251 0.0820687 0.210775 0.0921866 0.375703 0.0785808 0.472101 
0.0974479 0.137382 0.128214 0.470713 0.0926973 0.260028 0.0900804 0.373774 0.0863221 
0.344168 0.0971589 0.208053 0.12067 0.71324 0.0972849 0.725878 0.0997523 0.714669 
0.0808925 0.23551 0.104048 0.719532 0.0972889 0.135145 0.127482 0.447711 0.097545 
0.215434 0.0945523 0.446162 0.101752 0.117573 0.110018 0.178172 0.139114 0.192141 
0.0700675 0.444391 0.0812697 0.183655 0.13991 0.120757 0.112879 0.156174 0.0917718 
0.171029 0.087465 0.204394 0.184242 0.430538 0.105237 0.157382 0.0908718 0.167438 
0.0878946 0.193776 0.0981518 0.159071 0.14957 0.119117 0.116757 0.215718 0.114936 
0.187293 0.172452 0.418472 0.108744 0.191858 0.140198 0.182882 0.149792 0.200225 
0.143021 0.451625 0.0775271 0.398323 0.104412 0.196263 0.0930429 0.35283 0.113143 
0.297739 0.107121 0.168759 0.123669 0.198339 0.134199 0.434392 0.0954547 0.193103 
0.0963433 0.146424 0.138788 0.154722 0.137668 0.23074 0.126126 0.234795 0.121438 
0.185617 0.0780496 0.217425 0.164016 0.303716 0.13159 0.235345 0.142194 0.218871 
0.140641 0.149255 0.142984 0.14135 0.131294 0.137343 0.127237 0.308374 0.145115 
0.348908 0.108957 0.370217 0.115811 0.260428 0.0924453 0.295248 0.130976 0.358802 
0.130946 0.190497 0.18371 0.472397 0.117618 0.167137 0.157122 0.263463 0.149298 
0.197495 0.185681 0.210112 0.185984 0.194038 0.176491 0.174233 0.123324 0.227726 
0.129151 0.181566 0.11538 0.178308 0.116542 0.21191 0.161101 0.229361 0.156595 
0.288625 0.143003 0.307455 0.133697 0.173376 0.153667 0.320803 0.131279 0.201864 
0.191427 0.210197 0.11445 0.231617 0.18001 0.182688 0.125922 0.228789 0.128341 
0.278554 0.14986 0.202809 0.183984 0.298786 0.114483 0.225398 0.164482 0.214171 
0.170523 0.252218 0.157528 0.196504 0.145292 0.245101 0.159323 0.503189 0.0852538 
0.154741 0.145583 0.263272 0.189432 0.208187 0.169822 0.254105 0.212603 0.210478 
0.1682 0.247142 0.18345 0.207402 0.198618 0.268651 0.113902 0.191603 0.184095 
0.484222 0.120381 0.208865 0.193267 0.260484 0.245311 0.223992 0.197052 0.244646 
0.214601 0.1507 0.14371 0.293072 0.124029 0.28392 0.193687 0.156738 0.153979 
0.204635 0.15699 0.315707 0.147149 0.263622 0.173788 0.235567 0.163274 0.22752 
0.201029 0.247783 0.182972 0.278817 0.201183 0.295439 0.269153 0.879161 0.0793946 
0.233859 0.0977944 0.117757 0.103928 0.118835 0.0957106 0.215881 0.114345 0.163716 
0.106576 0.201253 0.0987891 0.565529 0.0792852 0.831802 0.0885011 0.117216 0.108398 
0.147015 0.136416 0.176362 0.125611 0.206814 0.125926 0.115265 0.10677 0.128246 
0.120565 0.830088 0.0875103 0.15097 0.110017 0.562602 0.0869782 0.14087 0.133685 
0.189062 0.117581 0.139884 0.108421 0.775328 0.0876275 0.146576 0.126467 0.178484 
0.105626 0.139843 0.129725 0.146844 0.134543 0.120116 0.116382 0.14918 0.133939 
0.196397 0.0933436 0.10804 0.10418 0.208544 0.135669 0.129783 0.118327 0.545558 
0.0870028 0.151528 0.146324 0.632359 0.0939601 0.453325 0.101753 0.167217 0.0938834 
0.146836 0.133756 0.181411 0.0816078 0.151188 0.145995 0.157339 0.145298 0.174603 
0.104392 0.187318 0.171724 0.187278 0.116927 0.631667 0.106619 0.436015 0.0960078 
0.354435 0.100368 0.200619 0.181148 0.137627 0.129124 0.206928 0.102461 0.456364 
0.089844 0.351732 0.11211 0.264713 0.113395 0.534353 0.093615 0.171076 0.11536 
0.173648 0.164103 0.178001 0.15631 0.151419 0.136537 0.142846 0.135868 0.165348 
0.160276 0.476903 0.099551 0.155843 0.115077 0.438496 0.107831 0.238797 0.120923 
0.302122 0.10576 0.159072 0.092472 0.196681 0.147301 0.259249 0.0849927 0.138734 
0.132779 0.132511 0.125993 0.317757 0.0938312 0.474528 0.112748 0.449521 0.121916 
0.364815 0.115102 0.216586 0.155523 0.174989 0.134553 0.214631 0.154332 0.469954 
0.109777 0.187619 0.153065 0.445415 0.11209 0.190174 0.142421 0.185647 0.178218 
0.165866 0.144385 0.204523 0.174036 0.352892 0.131288 0.358769 0.117435 0.224266 
0.20897 0.184314 0.167517 0.203888 0.197871 0.599593 0.108202 0.214813 0.17459 
0.170144 0.166117 0.171447 0.151879 0.180943 0.171118 0.239476 0.131666 0.267533 
0.121314 0.15057 0.138283 0.214197 0.142948 0.190437 0.122757 0.187408 0.167889 
0.202511 0.15857 0.191304 0.179529 0.143453 0.140259 0.232895 0.141585 0.312969 
0.144385 0.147935 0.141102 0.167703 0.111604 0.174471 0.149094 0.15885 0.137828 
0.213954 0.163161 0.396109 0.12583 0.293119 0.131135 0.233801 0.205954 0.183027 
0.16668 0.20336 0.193989 0.179393 0.165877 0.48699 0.111005 0.197557 0.18416 
0.194671 0.175042 0.275108 0.210772 0.40587 0.0794227 0.145648 0.137308 0.211371 
0.199715 0.195992 0.177119 0.247738 0.234034 0.193371 0.181467 0.249978 0.239355 
0.394729 0.129089 0.208723 0.173891 0.283844 0.117244 0.197088 0.182154 0.231826 
0.200884 0.17041 0.166872 0.208679 0.200454 0.316585 0.181136 0.238298 0.235677 
0.237689 0.0861149 0.105463 0.100335 0.258449 0.0850411 0.213144 0.0806859 0.100223 
0.0949714 0.873332 0.0779171 0.827106 0.0809066 0.461336 0.0791506 0.304259 0.0835914 
0.221026 0.0904745 0.727428 0.0678036 0.151881 0.139608 0.189908 0.141547 0.158913 
0.153029 0.319913 0.0665143 0.112157 0.103744 0.727076 0.0764458 0.774955 0.0800578 
0.113514 0.109374 0.12436 0.118764 0.157792 0.140107 0.113179 0.104558 0.72525 
0.0900442 0.171121 0.156859 0.130957 0.126591 0.724787 0.0864427 0.123295 0.111741 
0.502711 0.0900294 0.23533 0.125647 0.200919 0.134895 0.139196 0.13013 0.155697 
0.143863 0.364455 0.0945351 0.345764 0.0949026 0.226069 0.0928814 0.267831 0.137488 
0.343364 0.0963816 0.228065 0.112454 0.138405 0.128353 0.164823 0.149481 0.150473 
0.142004 0.497802 0.0924086 0.179515 0.161168 0.203606 0.105204 0.207458 0.141847 
0.510744 0.0867941 0.145985 0.138919 0.154915 0.143699 0.47902 0.0975023 0.196851 
0.125743 0.194361 0.184364 0.131714 0.113512 0.455201 0.0891762 0.133145 0.102276 
0.172147 0.156303 0.502656 0.106108 0.267158 0.0884192 0.122394 0.114911 0.148739 
0.130352 0.167066 0.130961 0.451073 0.0981091 0.208696 0.135715 0.630203 0.10341 
0.136021 0.131597 0.142825 0.124507 0.147041 0.133671 0.19726 0.129005 0.289186 
0.128916 0.161923 0.136727 0.229948 0.131453 0.154195 0.141614 0.163728 0.155707 
0.191745 0.169882 0.205899 0.122787 0.176527 0.171287 0.14297 0.136647 0.4711 
0.11059 0.192722 0.130254 
