# vtk DataFile Version 4.1
vtk output
ASCII
DATASET POLYDATA
POINTS 1300 float
16125 47875 54078.1 15093.8 45358.8 52015.6 15403.1 46113.6 52634.4 
19734.4 43760.3 46859.4 16702.5 45407.6 50901.9 13289.1 42976.6 44233.8 
18440.5 44082.8 47624.6 18072 41945.3 42218.8 13412.7 42724.3 44563.3 
11226.6 40697.5 40414.1 19346.2 43857 47088.9 25782.7 39625 46085.9 
22307 41910.4 46627.6 23601.6 39185.7 40156.2 12407.1 41792 42654.7 
7552.22 36531.2 43507.8 17898.9 42421.6 42956.4 16125 41225.5 37062.5 
11205.6 40708.5 41087.6 6776.72 36789.1 37062.5 25231.9 39772.8 45943.4 
28551.6 36273.4 44023.4 22963.3 40063.8 41217.7 21539.1 40203.5 35257.8 
8907.38 36872.9 43740.2 6843.75 31739 45312.5 27792.4 37090.8 43964.3 
29531.2 35362.8 39898.4 8123.22 34922 44337.7 5554.69 31937 40929.7 
7266.25 36791.3 37234.4 4728.66 33437.5 34226.6 16692.7 41609.7 37360.4 
16125 41230.7 31390.6 16295.3 41340.8 37151.9 12000 40715 35000 
28870.5 36019.5 41443.5 27001.6 37820.3 36804.7 7147.15 32088.5 44899.1 
5812.5 26277.5 44796.9 28323.8 36518.6 44005.7 31078.1 30859.4 43576.9 
22104.1 40309.4 36109 22828.1 41229.6 29843.8 6060.51 32159 41597.2 
4214.06 27765.6 39125 5340.91 34054.3 34425.1 4207.87 31375 29843.8 
29546.1 35339.5 39985.3 31667 33179.7 35773.4 22033.3 40979.3 31783.9 
18960.9 41742.2 28039.1 30251.8 32557.2 43705.5 31652.5 30859.4 39640.6 
16295.3 41344.4 33181.6 12257.8 41171.9 31139 28009.9 37137.2 37959.1 
29531.2 37442.9 33453.1 19249.1 41464.5 28725.3 15093.8 41230.7 25718.8 
5949.56 27405.1 44355.3 4217.16 23125 41445.3 12618.3 40596.6 35292.3 
8132.81 38662.8 32937.5 5853.65 26615.8 44664.4 6070.31 22093.8 48289.7 
4547.77 32178.8 31218.2 4207.87 26734.4 31132.8 30830.2 31368.7 43615.5 
30098.4 26734.4 45312.5 31092.4 33221.4 36730.2 31652.5 29312.5 34484.4 
22558.5 41194.4 29992.2 23343.8 41746.3 24945.3 31494.5 33192.2 36060.5 
31131.8 32921.9 30875 8559.65 38480.2 32997.3 5812.5 36352.8 31132.8 
4426.09 28786.7 30555.9 4722.47 24671.9 26750 4309.87 31616.1 30256.1 
4207.87 30343.8 24687.5 29001.4 37450.7 33740 29377.6 37820.3 29328.1 
13095.3 41126.6 31112.1 10453.1 40516 27007.8 16340.3 41300.9 26620.7 
16382.8 41745.2 21851.6 4716.8 25855.1 27236.2 5253.56 25187.5 22882.8 
31232.3 31368.7 40860.1 30820.3 25140.1 39640.6 30049.6 27206.7 44697.3 
29087.8 23125 45054.7 29144.3 37591.2 32063.5 26821.1 40140.6 30101.6 
27616.6 39255.5 30282.9 26695.3 40192.2 26492.2 23420.5 41234.7 25838.8 
25406.2 39156.8 21593.8 31269.6 33024.6 32845.5 31087.4 29312.5 30875 
4377.62 30360.4 25013.3 4726.59 29312.5 21078.1 4720.72 25026.8 26895.9 
5225.72 21578.1 29585.9 24651.7 39946.4 23206.9 22476.5 40656.2 19015.6 
29307.6 37751.5 30148.7 29546.7 34468.8 26750 4721.95 24778.4 26793.8 
6328.12 21312.1 24945.3 15196.7 41188.5 25853.9 12000 40714 23914.1 
5453.01 25079 23589 7713.09 23125 19531.2 7735.47 37842 32438 
7307.81 38335.9 28812.5 29267.4 23793.9 44633.3 28515.5 20031.2 42734.4 
16008.3 41442.5 22277.9 15093.8 41171.9 17923.5 25069.1 39164.9 21998.6 
25315.5 36789.1 19531.2 30519 26121.7 39381.2 29273.4 21527.6 37320.3 
29141.7 23325.7 44928.3 27984.4 20735.6 48406.2 5846.33 22352 25499.8 
6585.94 19515.6 27381.1 30954.8 29753.6 31407 29789.1 25304 30875 
5256.45 21815.5 29158.2 5912.53 18484.4 31132.8 29252.4 35689.9 27506.4 
28042.1 34984.4 23656.2 5313.37 25154.9 23094.7 6070.31 26476.6 19483.8 
4676.79 30004.1 22094.5 5243.25 31632.8 18500 31047.6 29444.8 31034.6 
29604.5 30085.9 27007.8 29855.5 23690.6 37845.5 29605.5 22867.2 34742.2 
25241.6 37501.8 20271.5 22510.5 37562.5 15921.9 29680.5 23114.2 35673.2 
28500 20490.2 35000 7233.77 38022.1 29394.4 5953.78 37046.9 25976.6 
28609.3 22134.2 46528.1 27328.5 17968.8 45828.1 6350.91 21529.7 25236.4 
8521.59 18484.4 24687.5 27955.5 35081.5 23844 26695.3 34726.6 21026.6 
6334.93 21377.4 25032.6 8132.81 20804.7 22065 29710.2 26117.8 30467.7 
28175.2 23125 28812.5 7919.34 23479.8 19949.8 10195.3 22248.4 16953.1 
26863.3 34569.7 21433.5 25465 32921.9 18500 6082.48 26004.8 20140.5 
7617.19 25655.7 17210.9 24310.7 37093.6 18510.4 23859.4 34468.8 16080.7 
15376.8 41179 18458 15351.6 40700.6 13343.8 6788.47 25844.2 18792.9 
6768.47 28796.9 16179.7 16270.5 41654.4 21979.4 19476.6 42260.9 20304.7 
6127.44 18797.8 30776.1 7617.19 14845.1 32679.7 5408.14 31616.9 18784 
6479.72 33437.5 15406.2 13046.6 40802 24123.8 11484.4 40156.1 20562.5 
29198.9 21978.1 37654.4 26953.1 18101.8 38093.8 7014.01 37918.2 27740.4 
8132.81 39160.9 24171.9 7644.72 25620 17331.5 9885.94 24929.7 14117.2 
23366.8 41592.8 25213.3 21539.1 42260.9 22625 28732.7 21289.6 34874.7 
27210.9 19640.4 32421.9 6225 37063.1 26124.7 5240.16 34984.4 22625 
27242 18156.2 45851.7 25921.9 15067.8 45312.5 6657.2 19776.1 27073.6 
8521.59 15906.2 28812.5 28382.4 23897 28891.8 26695.3 22867.2 26186.9 
6994.21 28462.4 16172.1 7288.22 30601.6 13859.4 15178.7 41174 18083.9 
12515.6 39682.7 17468.8 6616.46 33143.7 15620.9 8192.62 34468.8 12312.5 
23771.5 34997 16353.6 22361 33179.7 13343.8 8675.66 25302.5 15852.9 
8537.06 27507.8 13343.8 6987.51 16187.1 32410.5 6843.75 14549.1 35515.6 
26949.9 18607.9 38025.4 24375 15479.3 38351.6 6909.85 15302.6 34087.2 
9164.06 12730 34742.2 25690 32933.7 19028 24375 29828.1 16613.8 
8663.7 27451.8 13497 8830.97 29828.1 11023.4 7774.76 38620.7 24519.7 
8132.81 38651.5 21335.9 27576.5 19988.6 33548.8 25148.4 17062.3 32937.5 
8542.74 16244.8 28683.9 10195.3 13798.4 29843.8 27101.8 19660.5 32653.6 
24890.6 18316.3 29328.1 28237.3 23356.6 28836.3 27008.8 20804.7 29585.9 
25839 15424.7 45385.4 24117.2 12812.5 44956.7 27022.1 23253.5 26526.9 
25775.4 23640.6 23398.4 24383.5 30605.3 16831.7 22902.4 29054.7 14632.8 
7957.4 34346 13470.4 10453.1 36904.6 12312.5 8025.36 38642.2 22291.1 
6281.72 36273.4 19531.2 13339.4 40031.4 17323.1 11742.2 38445.2 14890.6 
26249.2 23493.5 24587.2 26953.1 26476.6 22833.3 7052.68 14579 35262.4 
8132.81 12448.5 38093.8 9959.75 36168.1 12336.4 11742.2 36578.7 10250 
24948.5 18347.7 29959.2 22570.3 16892.1 27781.2 23111.4 29509.5 14821.9 
21539.1 29312.5 11743.2 24102.5 13135.5 45155.6 21605.1 10234.4 45054.7 
7362.78 37742.1 21242.3 8523.66 38078.1 17726.6 22965.1 29191.1 14689.5 
22828.1 26218.8 15558.9 26793.3 22983.1 26288.9 24926.7 20289.1 25976.6 
7808.79 13087.6 37244.3 6328.12 12812.5 40615.2 6575.42 33231.8 15556.5 
7101.56 36015.6 16555.1 26741.9 25581.7 23359.5 24959.7 26218.8 19789.1 
22913 28061.6 15019.9 21281.2 25852.7 13085.9 8091.46 12500.5 38093.6 
9017.62 10492.2 41187.5 23283.8 17328.8 28434.6 22364.1 18226.6 25203.1 
23783.2 17634.4 28892 21023.4 14864.7 29585.9 29839.5 29624.1 27805.4 
28500 28023.4 24939.1 21747 29070.7 12329.3 19992.2 27205.7 9992.19 
6943.68 35180.5 16255.5 9164.06 37129.4 15148.4 22649.4 26686.3 15269.6 
21290.5 23898.4 15148.4 22499.6 18250.8 25515.3 21796.9 19339.3 22625 
22600.9 16975.6 27986.3 19781.8 15648.4 26492.2 22404.7 18233.8 25296.8 
19218.8 17083.9 23398.4 21184.7 15304 29652.6 18445.3 13268.3 30617.2 
29614.8 29922.6 27089.8 28821.8 30601.6 24687.5 22176.3 18751.5 24185.8 
23859.4 21062.5 22970.5 20225.6 17674.2 23665.8 18445.3 18425.6 20562.5 
18600 13647.2 30308.5 15867.2 12294.8 30617.2 28760.1 30402.2 24836.1 
27468.8 30859.4 21786.6 23027.4 20275.5 23119.8 23085.9 22539.2 20304.7 
18491.7 13382 30524.6 17671.9 12236 33195.3 17604.5 12430.5 32618.6 
15609.4 11415.2 34226.6 20175.4 15790.2 27021.5 17156.2 14101.6 27391.4 
17651.7 12294.4 33022.3 17929.7 11751.3 35773.4 21834.6 19349.9 22652.3 
21281.2 20385 20046.9 21169.6 20315.7 20194.8 20250 21320.3 17597.7 
20893.7 20617.1 19415.7 18187.5 19666.2 18242.2 15896.9 45845.4 51976 
18445.3 45109.2 52531.2 17680.8 45330.1 52364.7 19476.6 44340.9 50726.6 
19064.2 44636.4 50745.4 20056.1 44265.6 48921.9 15877.4 44179.1 47331.5 
16382.8 43824.2 45570.3 20234.4 43273 46950.5 21862.9 42976.6 48664.1 
17647.7 43108.6 44658.6 16382.8 42976.6 43700.7 17885.5 43400.8 45548.4 
19992.2 42106.2 43765.6 16455.6 42958 43741.1 14835.9 42721.8 42476.6 
21926.9 41212.4 43748.1 21074 41171.9 42476.6 15088.3 42640.8 42565.4 
13514.9 41687.5 40671.9 10059.9 38816.9 43147.2 8390.62 38460.7 42218.8 
23321.1 41121.6 46114.4 23909.9 40398.4 44281.2 21080.6 41122.4 42531.1 
19476.6 40739.8 40414.1 22652.4 40408.4 41976.8 24787.5 39109.4 41960.9 
17983.4 41534.4 39955.5 18703.1 40715 38609.4 8803.64 38387.4 42327.1 
7167.56 37046.9 40671.9 24417.2 39315.7 41748.7 26260.1 38078.1 40414.1 
26778.7 38140.6 44448.7 26953.1 37884.2 42476.6 7658.44 37449 41168.4 
6480.75 35242.2 41703.1 7253.26 37039.3 40705 6272.44 35757.8 39382.8 
23435.4 39533.1 40287.8 24375 38970.2 37835.9 6515.3 35937.4 39881.6 
5554.69 33836.6 39640.6 14932 41131.3 35958.7 14578.1 41230.7 34484.4 
21708.6 40235.3 35513.2 19734.4 40715 35000 6934.81 31843.9 45188.4 
7359.38 30601.6 47711.2 24089.5 39213.8 38209.2 24148.1 39625 35773.4 
20326.6 40571.1 35154 19218.8 41171.9 32748.8 6341.63 30059 44018.1 
5296.88 28854.6 42218.8 28849 36189.3 39524.9 29531.2 35668.1 37578.1 
30569.4 32359.5 42476.5 30629.5 33437.5 40414.1 24206.2 39565.6 35975.4 
24422.4 39882.8 33710.9 5520.76 28919.1 42632.4 4881.28 26992.2 41703.1 
5696.17 31935.4 40945.3 4722.47 31117.2 38609.4 20360.4 41166.2 30723.2 
18445.3 41230.7 30617.2 15046.5 41260.3 31678.1 14578.1 41230.7 29585.9 
24484.3 39956 33858.1 24890.6 40506.7 31648.4 29527.5 35789.1 37778.9 
30820.3 35526.8 35257.8 27267 37730.6 36899.8 26953.1 38496.8 35257.8 
14872.4 41240.1 29822.3 15093.8 41230.7 28039.1 13497.5 40799.8 35545.5 
11484.4 40516 37578.1 5842.82 34466.8 39712.9 5223.66 33695.3 37835.9 
4889.94 30945.9 39068.1 4207.87 29570.3 37578.1 11879.9 40845.7 29224.1 
13031.2 41224.5 27007.8 26909.2 38443.1 35350.1 26437.5 39180.5 33710.9 
26579 38959.3 34202.7 27726.6 39109.4 32708.6 13992.8 41188.1 31372.5 
12465.1 40914.1 32937.5 19760.3 41327.3 29644.3 21023.4 41745.2 27781.2 
5922.43 22818.1 47091.3 5727.94 20804.7 47117.2 4655.44 28675.7 39140.8 
4207.87 27250 37062.5 31259 28861.8 39495.9 31652.5 28023.4 38351.6 
[...]
CELL_DATA 1299
SCALARS radius float
LOOKUP_TABLE default
0.0576584 1.15099 0.0632685 1.14787 0.0634588 1.019 0.0729286 0.767161 0.0725257 
0.956713 0.0692766 0.955659 0.0673935 0.765163 0.0808301 0.550507 0.0580366 0.702394 
0.0410236 0.86776 0.0617072 0.593976 0.0537208 0.431165 0.0635539 0.865948 0.0459508 
0.427825 0.063578 0.70153 0.0678922 0.542714 0.105835 0.499479 0.080694 0.685889 
0.0530172 0.356355 0.0664266 0.688712 0.0569826 0.575298 0.067779 0.299256 0.121024 
0.698327 0.0747556 0.514603 0.0670008 0.57101 0.0637453 0.688154 0.0628818 0.327853 
0.079159 0.560458 0.0781574 0.463966 0.0668728 0.317351 0.166198 0.488438 0.0784161 
0.290054 0.138234 0.696426 0.109549 0.434139 0.0649458 0.511783 0.0579862 0.426457 
0.0775819 0.485676 0.108331 0.483165 0.0934976 0.648494 0.0557048 0.400198 0.0759382 
0.543838 0.0878523 0.284398 0.0648017 0.439137 0.0742912 0.644185 0.05235 0.622505 
0.0907675 0.428094 0.0522677 0.543299 0.106804 0.226184 0.104444 0.421902 0.0920889 
0.482812 0.0655873 0.379908 0.0812395 0.5563 0.0687566 0.403986 0.083948 0.528717 
0.0824197 0.432209 0.0605139 0.321909 0.0744679 0.451691 0.104655 0.482475 0.0787513 
0.412953 0.114159 0.367132 0.0625586 0.343324 0.0959487 0.612057 0.0694856 0.384055 
0.109704 0.430094 0.088038 0.480987 0.0617177 0.449125 0.0906964 0.503462 0.0698524 
0.402649 0.101551 0.378894 0.0845306 0.323389 0.0715647 0.610495 0.0929845 0.341101 
0.151193 0.594588 0.0692209 0.425586 0.0760987 0.380284 0.0752893 0.34437 0.0683134 
0.495242 0.086866 0.29044 0.0954606 0.418468 0.0792514 0.279314 0.139302 0.490113 
0.0964674 0.394787 0.069965 0.320122 0.133321 0.331797 0.180787 0.392534 0.0833773 
0.21971 0.147716 0.446096 0.125947 0.351192 0.090571 0.316569 0.136756 0.254606 
0.0986007 0.413406 0.107425 0.322356 0.0886179 0.171888 0.14126 0.592624 0.0532228 
0.266305 0.126782 0.355164 0.0963387 0.330335 0.102003 0.402256 0.0799297 0.291668 
0.145581 0.271157 0.117948 0.344487 0.146748 0.260701 0.212835 0.321253 0.100408 
0.444843 0.0748068 0.238982 0.143594 0.441452 0.109191 0.487462 0.0860373 0.280293 
0.195431 0.359206 0.123354 0.586558 0.112576 0.29004 0.155413 0.581557 0.0628844 
0.233263 0.129745 0.332432 0.109145 0.374198 0.13093 0.474218 0.0813693 0.289722 
0.169153 0.350772 0.124575 0.25069 0.197282 0.361961 0.0972484 0.386631 0.0548677 
0.253168 0.224974 0.571822 0.076559 0.436045 0.0784782 0.321694 0.175623 0.345612 
0.118169 0.369838 0.0972504 0.1707 0.164646 0.356166 0.195756 0.2549 0.138417 
0.356158 0.0812602 0.368521 0.174389 0.325115 0.149915 0.52846 0.065409 0.567566 
0.0972655 0.322487 0.111355 0.310492 0.129373 0.25103 0.14477 0.327148 0.163788 
0.48418 0.0437503 0.30822 0.0841509 0.268475 0.13688 0.327876 0.0842629 0.280066 
0.0651175 0.454934 0.0806801 0.267174 0.168264 0.324998 0.169332 0.2785 0.118676 
0.32666 0.181603 0.27216 0.108853 0.269441 0.202257 0.300005 0.15202 0.224316 
0.215424 0.384859 0.0930272 0.371912 0.0836797 0.343629 0.193134 1.14913 0.0786545 
0.165123 0.0829638 0.158946 0.108943 0.768484 0.0897195 0.956621 0.0888119 0.561541 
0.0344344 0.566599 0.0592375 0.217117 0.0526042 0.601371 0.0493886 0.212502 0.068791 
0.460841 0.0703959 0.868589 0.0937665 0.123872 0.121197 0.598977 0.0755295 0.547368 
0.0658653 0.256361 0.0526419 0.174773 0.0785577 0.866794 0.0786642 0.254579 0.117078 
0.23876 0.089514 0.252724 0.0780768 0.237904 0.102336 0.497706 0.0954542 0.161679 
0.0923539 0.181892 0.0873278 0.238427 0.0542245 0.146556 0.133141 0.339801 0.0974723 
0.571233 0.057526 0.624926 0.0965487 0.235603 0.0773485 0.1831 0.142626 0.236025 
0.0914488 0.477132 0.0672285 0.324135 0.0894156 0.214812 0.105881 0.217927 0.0615022 
0.238048 0.0587486 0.176191 0.118221 0.496533 0.0804158 0.233602 0.0973865 0.234477 
0.105775 0.253812 0.142362 0.214026 0.0962026 0.21254 0.0984904 0.30576 0.104591 
0.466219 0.113482 0.262463 0.165677 0.238996 0.131496 0.620126 0.054352 0.208303 
0.0806299 0.243164 0.053254 0.399327 0.0748336 0.646641 0.0914949 0.264093 0.116712 
0.18596 0.136053 0.241695 0.103625 0.248799 0.122211 0.198544 0.112415 0.20311 
0.155471 0.321473 0.0622116 0.237907 0.111037 0.456549 0.0873496 0.313943 0.0856116 
0.194935 0.140344 0.520701 0.0867223 0.184866 0.13871 0.338768 0.132971 0.153955 
0.147913 0.189968 0.103735 0.289156 0.105278 0.238478 0.0849639 0.289562 0.108847 
0.190974 0.119041 0.426269 0.0610206 0.370697 0.116969 0.222935 0.0817244 0.526494 
0.0806234 0.221232 0.106072 0.276429 0.0936614 0.190208 0.142667 0.230959 0.126238 
0.268935 0.080116 0.253751 0.0884396 0.210596 0.153099 0.262271 0.140382 0.361696 
0.140533 0.219279 0.121311 0.168694 0.165444 0.593829 0.108374 0.264864 0.145622 
0.211808 0.182176 0.184939 0.0902242 0.250571 0.153388 0.161021 0.11112 0.248114 
0.12412 0.286289 0.120499 0.354033 0.115521 0.171325 0.163079 0.216841 0.136024 
0.156695 0.146012 0.183415 0.0677432 0.257755 0.164421 0.24416 0.173873 0.253045 
0.119595 0.181909 0.139154 0.232517 0.220073 0.4862 0.11341 0.164947 0.150001 
0.575411 0.104734 0.329713 0.13666 0.276585 0.17022 0.328238 0.151603 0.285772 
0.164291 0.282422 0.0981041 0.467814 0.0917355 0.213462 0.189136 0.230173 0.119256 
0.276873 0.185212 0.379603 0.16303 0.221541 0.160239 0.363271 0.146411 0.269039 
0.100983 0.300229 0.158496 0.234635 0.161537 0.220414 0.187519 0.278689 0.186145 
0.228929 0.198172 0.198632 0.194462 0.234316 0.17598 0.31834 0.131574 0.280611 
0.194888 0.262325 0.201435 0.280832 0.200051 0.240489 0.226571 0.162133 0.153618 
0.226177 0.131781 0.233348 0.132794 0.254617 0.168742 0.296071 0.127545 0.219287 
0.191581 0.29406 0.0745343 0.210153 0.196694 0.369961 0.175807 0.303177 0.156889 
0.28847 0.215983 0.194873 0.0473086 0.193176 0.0539199 0.18548 0.0789157 0.17213 
0.0912343 0.166413 0.156719 0.169016 0.0827572 0.767017 0.0705619 0.144259 0.114711 
0.12975 0.0798856 0.548093 0.0867347 0.466395 0.0658199 0.170306 0.0744067 0.203418 
0.0811773 0.151506 0.143302 0.122719 0.109697 0.160675 0.091903 0.251116 0.0712407 
0.135796 0.119999 0.123965 0.112352 0.148454 0.105553 0.362098 0.109796 0.688547 
0.0823902 0.698852 0.0916404 0.177395 0.116689 0.169938 0.111671 0.16477 0.15615 
0.131641 0.124282 0.109463 0.103888 0.120634 0.112992 0.193847 0.113591 0.697125 
0.10058 0.231025 0.094925 0.499218 0.104074 0.179861 0.0833886 0.180593 0.108309 
0.486303 0.0953038 0.196249 0.143704 0.212289 0.15464 0.226863 0.098787 0.166542 
0.112258 0.139165 0.112922 0.429319 0.0877397 0.125029 0.119485 0.127971 0.095135 
0.48508 0.110426 0.620819 0.0928503 0.191559 0.141504 0.256265 0.112625 0.238302 
0.179416 0.219062 0.0535934 0.212761 0.0627608 0.371631 0.122573 0.228168 0.149229 
0.182193 0.117694 0.161289 0.154271 0.14532 0.132056 0.18158 0.147708 0.412168 
0.108505 0.450485 0.0937914 0.415031 0.10222 0.217699 0.124661 0.354482 0.0718292 
0.205394 0.193951 0.265021 0.0980068 0.144314 0.132744 0.155355 0.102464 0.154034 
0.125312 0.17256 0.114053 0.159728 0.154732 0.239708 0.0954882 0.161141 0.1098 
0.234592 0.0949798 0.197198 0.141855 0.223846 0.172054 0.366773 0.111863 0.154866 
0.14721 0.182945 0.176852 0.496951 0.108073 0.159469 0.139848 0.224468 0.143287 
0.19485 0.14187 0.22922 0.141342 0.274328 0.13758 0.320944 0.11007 0.494778 
0.0854183 0.299542 0.115834 0.186207 0.153275 0.158046 0.137077 0.157473 0.149261 
0.203022 0.158838 0.271749 0.132939 0.317083 0.134606 0.191044 0.164555 0.299948 
0.129537 0.255045 0.134084 0.248518 0.178711 0.244202 0.175372 0.146644 0.139468 
0.149256 0.144451 0.275486 0.155812 0.304507 0.134061 0.200635 0.186007 0.233251 
0.143641 0.27593 0.172585 0.215673 0.193172 0.193079 0.186645 0.238961 0.166298 
0.228526 0.194303 0.355974 0.124905 0.145728 0.138837 0.369303 0.121752 0.296085 
0.157885 0.172337 0.154552 0.152435 0.133759 0.340181 0.13802 0.31745 0.170186 
0.175292 0.166482 0.243627 0.138169 0.220229 0.20223 0.185781 0.167698 0.202385 
0.137973 0.20402 0.195416 0.246811 0.157717 0.241514 0.17753 0.260431 0.223828 
0.182316 0.16726 0.490906 0.111542 0.228594 0.18658 0.258319 0.240254 0.263771 
0.181177 0.261175 0.228101 0.244933 0.232257 0.229642 0.147044 0.333677 0.1319 
0.241975 0.105184 0.227032 0.190727 0.233366 0.176571 0.142235 0.140841 0.266589 
0.208446 0.242697 0.155368 0.240611 0.153558 0.093889 0.0897012 0.768765 0.0792457 
0.956903 0.080401 0.767789 0.0769166 0.138201 0.0586244 0.767531 0.0867872 0.124699 
0.120221 0.139599 0.0644471 0.133311 0.128088 0.599614 0.0881796 0.120629 0.113707 
0.121565 0.108766 0.463689 0.0892255 0.867314 0.0443523 0.701875 0.0798708 0.11802 
0.110742 0.578316 0.0646533 0.246042 0.108682 0.310434 0.0861207 0.164147 0.144708 
0.364406 0.0970373 0.575984 0.0880093 0.308209 0.090967 0.135323 0.119938 0.189133 
0.111271 0.321066 0.104328 0.225007 0.113945 0.105045 0.100335 0.51448 0.0952764 
0.16121 0.0942683 0.51268 0.089023 0.15736 0.145162 0.487703 0.0998731 0.149244 
0.136789 0.649252 0.0985462 0.272402 0.128722 0.286632 0.134376 0.126182 0.121111 
0.425885 0.0668886 0.180382 0.167337 0.220716 0.161463 0.135905 0.10229 0.269095 
0.102171 0.205756 0.0932601 0.129015 0.12272 0.165607 0.109785 0.264292 0.128264 
0.164081 0.0754788 0.325229 0.105622 0.162069 0.102421 0.409646 0.10238 0.16382 
0.131245 0.614839 0.0907868 0.130633 0.113985 0.161178 0.118612 0.612867 0.0969473 
0.169717 0.145231 0.181127 0.120624 0.211644 0.110476 0.209788 0.156554 0.427103 
0.0938835 0.169009 0.152377 0.338308 0.100516 0.188399 0.176518 0.118227 0.114718 
0.180911 0.158524 0.611391 0.10011 0.153607 0.132013 0.230817 0.130879 0.168277 
0.101668 0.120789 0.112579 0.293981 0.124775 0.188437 0.1158 0.161116 0.157909 
0.23354 0.147899 0.129528 0.124678 0.215428 0.129643 0.158981 0.151887 0.489202 
0.107564 0.201756 0.182051 0.168849 0.15817 0.245201 0.103023 0.367973 0.11566 
0.404989 0.11014 0.271242 0.144397 0.201215 0.165804 0.163376 0.159293 0.275136 
0.124761 0.349552 0.12231 0.267467 0.146871 0.181648 0.128993 0.225553 0.182528 
0.252631 0.234864 0.193649 0.176648 0.195576 0.171474 0.364124 0.124505 0.171083 
0.151334 0.24124 0.21249 0.20468 0.186979 0.16645 0.121482 0.178245 0.161399 
0.25129 0.203311 0.229725 0.152528 0.206319 0.163216 0.173093 0.150094 0.210286 
0.176999 0.295586 0.148869 0.179488 0.153237 0.160623 0.0998108 0.245914 0.188398 
0.201525 0.193456 0.157344 0.142621 0.285334 0.121883 0.318538 0.133662 0.206224 
0.190926 0.232246 0.214645 0.221155 0.149108 0.223147 0.179753 0.214567 0.201885 
0.286396 0.184239 0.306637 0.122328 0.260877 0.21362 0.168637 0.150487 0.236136 
0.216393 0.176629 0.147696 0.207474 0.187475 0.207267 0.142847 0.285834 0.163945 
0.210391 0.201235 0.215883 0.166641 0.214646 0.211608 0.378271 0.138974 0.237189 
0.213435 1.14799 0.077605 0.108607 0.103982 0.768076 0.0798013 0.151024 0.129098 
0.122228 0.107987 0.0861323 0.0842573 0.114284 0.108712 0.105633 0.101092 0.765472 
0.0815833 0.867971 0.0781178 0.868224 0.0830404 0.122226 0.103714 0.867613 0.08765 
0.702136 0.072856 0.432715 0.0953765 0.105485 0.102804 0.132586 0.0652229 0.12725 
0.121261 0.358701 0.0965462 0.102549 0.0973787 0.699307 0.0873357 0.179268 0.108796 
0.164146 0.144943 0.119029 0.115153 0.130537 0.109816 0.164338 0.14177 0.132814 
0.128099 0.173387 0.132214 0.513389 0.0824264 0.176674 0.131734 0.623022 0.0844071 
0.544701 0.0915571 0.545761 0.0981387 0.147798 0.13836 0.211415 0.140313 0.168154 
0.145848 0.187035 0.177357 0.48525 0.0928303 0.166479 0.161369 0.440539 0.0933786 
0.136198 0.118668 0.160042 0.138982 0.12655 0.105241 0.647451 0.100575 0.16141 
0.150282 0.159345 0.139637 0.221662 0.172307 0.484115 0.0970528 0.141118 0.120212 
0.212567 0.184512 0.382246 0.100616 0.232505 0.0999141 0.165165 0.152552 0.156417 
0.140145 0.318814 0.113522 0.128779 0.125607 0.527908 0.105624 0.199034 0.159367 
0.4319 0.10022 0.122105 0.114357 0.138789 0.118354 0.293653 0.0834349 0.153348 
0.136267 0.21795 0.125446 0.167298 0.15278 0.497898 0.0889087 0.14335 0.127549 
0.166656 0.133641 0.166564 0.151565 0.15028 0.140453 0.152282 0.143429 0.181695 
0.145723 0.595362 0.0936499 
