# vtk DataFile Version 4.1
vtk output
ASCII
DATASET POLYDATA
POINTS 1300 float
16125 47875 54078.1 15093.8 45355.7 51757.8 15403.1 46111.5 52453.9 
19734.4 43794.3 47117.2 15186.6 45582.4 51966.6 12000 42777.5 45054.7 
18348.4 44153 47872.3 18187.5 41887.6 42218.8 12655.1 42928.9 45486.4 
11608.1 40914.1 40671.9 19318.6 43901.9 47343.8 25782.7 39625 46085.9 
22809.2 41592.4 46664.6 24198.7 39109.4 39898.4 12341 42324.5 44042 
7617.19 36531.2 43609.9 11828 41337.2 41682.9 16125 41225.5 37062.5 
9412.18 38732.7 43774.1 6585.94 36584.9 36804.7 25367.5 39687 45989.5 
28551.6 36273.4 44281.2 23451.2 39932.9 41075.6 21539.1 40203.5 35257.8 
8424.35 36983.1 43932 6843.75 31739 45312.5 27555.2 37359.9 44301.7 
29395.1 35500 40156.2 7823.75 34990.3 44456.6 5727.94 32148.4 40929.7 
6744.23 36219.1 37394.6 4728.66 33437.5 32937.5 14928.7 41256.3 37515.9 
15867.2 41230.7 31390.6 6365.04 32529.5 42255.1 5039.06 27765.6 41579.4 
24258.9 39348.9 40029.6 27352.2 37820.3 36546.9 28252.7 36599.4 44287.3 
31078.1 31117.2 43513 22127.5 40274.3 36034.6 22054.7 41230.7 29585.9 
29368 35662 40399.9 31400.9 33953.1 36289.1 6633.38 36475.1 36981.6 
9886.97 39882.8 34742.2 5436.82 29194.8 41782.1 5812.5 24445 46085.9 
5227.78 33750.1 33280.9 4207.87 31375 29070.3 14989.4 41238.9 32340.1 
13804.7 41230.7 27781.2 5890.98 32048.4 41134.2 4207.87 29828.1 36804.7 
4840.24 32847.6 31680.9 4207.87 28539.1 31648.4 30197.5 32819.4 43173.5 
31851.6 29570.3 39151.8 27116.9 38065.2 36722.9 30046.9 36947.9 33195.3 
7869.74 37770.1 36130.6 7498.6 38593.8 32164.1 30813.9 31627.9 43411.1 
30121.1 26992.2 44539.1 26259.5 38450.3 37714.9 26437.5 39824 31906.2 
30724.6 33937.7 37403 31652.5 29570.3 33968.8 22514.8 41098.1 29914.6 
23085.9 41757.6 24687.5 22686.1 41295.9 28346.5 18187.5 41745.2 25203.1 
4479.81 31358.5 29868 4207.87 26734.4 26750 14160.1 41233.1 29148.9 
10401.6 40398.4 27781.2 18473.1 41497.6 25235.7 15351.6 41246.1 22625 
28950.6 37425 33888.6 29541.6 37562.5 29328.1 5646.88 34636.7 33982.6 
5296.88 35321.6 30359.4 4289.45 28121.6 27685.4 4705.97 23898.4 29585.9 
4408.45 27290.4 26796.6 5296.88 24859.6 23140.6 4361.74 29351.6 28514.8 
4265.62 29799.3 22625 31355.3 30545 40358.3 30820.3 25445.3 40202.7 
29998.1 27094.1 44484.9 29087.8 23382.8 45312.5 22621 41220.8 28942.3 
26437.5 40523.2 27265.6 23241.3 41188.4 25827.7 25423.8 39109.4 21593.8 
31122.6 30061.8 34923.3 30820.3 26334.2 33453.1 4580.98 25165.4 29015.8 
5812.5 21314.1 26492.2 24419.8 40065.8 23541.4 22312.5 40914.1 19186.8 
31493.5 29717.8 34255.1 30631.6 29312.5 30101.6 29385.6 37128.3 30234.6 
29567.3 34726.6 27007.8 16288 41321.6 23408.2 17414.1 41761.8 18242.2 
7506.22 38200.2 32494.9 7101.56 38129.7 28812.5 5381.85 25273 23646.2 
7617.19 23125 19701.4 23808.5 40000.9 21659.9 24117.2 37966.8 18500 
30820.4 26418.1 39877.3 29789.1 22558.8 37578.1 4761.04 23996.1 29403.4 
5554.69 19980.7 30359.4 29396.9 24473.4 44560.5 28500 19773.4 42482.8 
29099.1 23650.2 45326 28042.1 21320.3 48148.4 15632.5 41268.8 22860 
11484.4 40463.4 22882.8 29512.8 35447.1 27975.8 28040.1 36015.6 24171.9 
4701.12 29573.3 23033.7 5236.03 29570.3 19531.2 25120.3 39051.4 22286.9 
26339.5 35757.8 20562.5 30156.8 28558.4 44549.8 29091.9 26218.8 47632.8 
17076.3 41629.8 19792 14320.3 40685.1 16695.3 30721.4 27071.9 33452 
29531.2 24414.1 30610 29829.6 23138.3 37480.3 29049.7 21320.3 35257.8 
4289.45 31370 29309.6 4705.97 33179.7 25718.8 30786.7 29674.6 30862.1 
30076.8 31117.2 27523.4 5804.87 22138.3 26769.5 8132.81 19773.4 23605.7 
28840.8 21559.4 43272.3 27468.8 18148.2 45828.1 5589.44 20405.5 30414.4 
6585.94 16908.6 31648.4 29883.2 30944.3 27725.6 28574.2 32148.4 24429.7 
5565.1 20108.1 30375.9 7507.87 17710.9 27781.2 25846.6 36089.9 20753.4 
25972.4 33179.7 19273.4 7584.49 23668 20122 10055.1 22609.4 16695.3 
23729.7 38143.5 18780.6 23085.9 36273.4 15890.9 5231.08 29167.5 20748.5 
6843.75 26683.8 17468.8 7144.46 38065.6 29052.4 6792.19 37820.3 25460.9 
5847.05 28553.3 19187.3 6520.97 29570.3 15921.9 23132.5 41586.9 25029.6 
20765.6 42260.9 21851.6 7607.39 23287.9 19827.6 10453.1 20031.2 19874.7 
29801.2 22732.7 37548.7 27468.8 18617.4 38093.8 15147.1 40968.5 17624.3 
15867.2 40914.1 13829.5 6318.84 29265.2 16901.5 6328.12 33701.5 15664.1 
16034.5 41272.6 18621.4 12515.6 40198.4 19531.2 28993 21555.5 35819.1 
26695.3 18455.5 33710.9 4647.19 33051.5 25748 4932.84 34468.8 22625 
29032.7 21390.9 35426.2 28757.8 22064.9 32164.1 6661.53 17313.8 31614.5 
7994.62 14359.4 32937.5 29636 25124.6 30873 27984.4 24363.5 27007.8 
6732.58 27273 17673.2 8541.19 26218.8 14632.8 6925.01 18430.1 28559.6 
8390.62 15736.1 29328.1 27595.2 18611 45029.7 25725.9 14875 45054.7 
9505.92 23309.1 17070 10917.2 23898.4 14117.2 6325.34 32370.6 16035.3 
8028.66 33953.1 12054.7 6581.71 29462.5 16066.8 7806.94 30085.9 12828.1 
25787 33603.2 19384.3 24890.6 30592.3 17210.9 27278.4 19109.7 38000.4 
24960.8 16164.1 38351.6 23204.4 36273.1 16386.8 22691 32664.1 13859.4 
26712 18911.9 33672.6 25148.4 17401.6 32164.1 7594.7 15245.7 32540.6 
6843.75 14527.5 35773.4 11828.1 40346.1 23199.2 8648.44 39474.4 23656.2 
26242.9 18458.8 33220.1 25921.9 19152.6 29843.8 9602.34 39736 23519.1 
7101.56 37617.2 21078.1 26276.5 19187 31223.4 27468.8 21529.7 29328.1 
7874.69 14625.2 32818.4 9937.5 11881.3 35257.8 28084.7 24693.4 27306.2 
26455 24671.9 23656.2 25651.9 15115.9 44904.3 23859.4 12533 44539.1 
24763.1 31125.3 17401.1 23410.8 29054.7 15406.2 14519.4 40569.5 17026.9 
12257.8 38664.9 15148.4 22728.2 32808.3 14249.4 22383.7 30085.9 13085.9 
7475.39 37749.5 21158.7 6293.06 36273.4 19273.4 12681.3 38916.5 15150.3 
10921.3 36789.1 11539.1 9318.64 12704.5 34526 8390.62 12386.6 37835.9 
26028.3 19162.9 30257.6 23343.8 17800.7 27265.6 27111.1 20826.9 29896.7 
25987.9 21320.3 26750 23927.7 12932.4 44714 22054.7 11007.8 44746.3 
26943.9 24678.3 24751.3 26993.3 27507.8 22367.2 23694.3 29276 15944.9 
22828.1 26642.6 15406.2 26978.5 26659 23082.4 25664.1 26377.6 20562.5 
8352.47 12580.6 37267.1 6328.12 13159 40156.2 23226.6 27854 15654.1 
21796.9 27208.8 12828.1 22326.4 30676.6 13111.3 21310.1 29054.7 11023.4 
12384.9 38740.4 15149 8906.25 37820.3 16555.1 8379.18 12444.8 37665.3 
8648.44 11007.8 40624.4 24363.9 18318.3 28402.6 21847.4 15648.4 29328.1 
23394 17897.1 27374.8 21152.3 17195.3 25203.1 25889.3 26575.7 20918 
24738 27250 18242.2 21930.2 27166 13338.5 19992.2 25658.8 11023.4 
22761.8 26815.4 15404.5 21130.7 24156.2 14632.8 22183.5 17518.1 26202.1 
22054.7 18934 23656.2 21859.7 15824.9 29322.6 19734.4 13990.2 30101.6 
28550.1 24822.8 28376.3 28576.3 27765.6 25976.6 21242.5 17308.3 25280.3 
19218.8 17195.3 23257.2 29340.8 31113.2 26374.2 28533 29828.1 24429.7 
19909.2 14230.8 30285.4 17929.7 12752.7 31648.4 22093.3 18509.2 24420 
24117.2 21200.7 23140.6 19891 17436 23588 18960.9 18631.8 20562.5 
28667.2 30386.2 24749.3 27471.8 30601.6 21851.6 25731.6 26437 20669.2 
23744.9 23125 20304.7 19315.3 13787.3 30694.3 16125 13252.8 29070.3 
18051.1 12887.8 31643.5 16125 11722.5 33453.1 17165.1 12351.7 32475.9 
17992.6 11781.2 35000 18103 13584.3 30077.2 17671.9 14504.8 27007.8 
22074.4 18943.2 23701 22054.7 20546.9 21193.6 21843.4 20150 21558.2 
20507.8 20804.7 18962 20790.8 20855.1 19085.9 19992.2 21732.8 16437.5 
20592.7 20819.8 18999.2 17929.7 19708.5 17984.4 15944.9 44002.2 50044.5 
18445.3 45296.9 52724.1 17150.5 44397.3 50863.5 19734.4 44327.5 50726.6 
14697.4 44729.6 49053.6 15609.4 44811.2 47117.2 19217.2 44269.7 50546.9 
21023.4 43779.9 49179.7 15399.2 44648.8 47351.3 15867.2 43808.8 45054.7 
20365.8 43209.1 47140 20765.6 42261.9 44796.9 15560.4 43962.1 45530.4 
14578.1 43283.9 44023.4 22804.7 41096.9 44713.6 21539.1 41253.3 43507.8 
14771.1 43324.4 44177.6 14062.5 42265 42218.8 17807.7 42170.9 42648.1 
17202.7 41429.7 40414.1 21756.6 41172.9 43557 20507.8 41189.4 41960.9 
11674.1 41041 40975.2 9554.91 39625 40414.1 14398.2 42480.5 42567.2 
15093.8 41761.8 40929.7 10029.1 39899 40312.9 8854.69 38851.6 38609.4 
20873.6 41109 42158.6 19998.4 40656.2 39382.8 26071.9 38911.4 45150.3 
26179.7 38635 43250 26179.3 38567.6 43352.8 26301.4 38078.1 41445.3 
21828.7 40117.8 38439.7 20250 40202.5 37320.3 7949.05 36617.3 43539.5 
6585.94 35242.2 41749.5 20650 40243.1 37442.1 20062.3 40656.2 36031.2 
6845.71 35583.4 41937.5 5812.5 35027.7 39640.6 7557.99 33822.9 44988 
7815.19 32921.9 46601.6 24216.7 39181.3 39937.7 23859.4 39171.2 37062.5 
6964.41 31998.1 45127.7 6328.12 29570.3 44618.5 6879.95 31816.7 45257 
7359.38 30601.6 47711.2 28720.9 36249.4 41202.8 28242.2 36582.8 38609.4 
20066.8 40553.5 36087.3 18960.9 40719.2 33710.9 14612.1 41218.5 35171.7 
12515.6 41029.6 33710.9 29382.6 35574.5 40268.3 30597.6 33695.3 40414.1 
26312.9 38862.4 35972.3 24375 39679.7 35000 30038.3 34897.9 38607.9 
29989.1 35500 36804.7 5387.11 34087 33547.6 4705.97 31632.8 34742.2 
18937.6 40822.6 33848.1 17929.7 41230.7 32164.1 5386.08 31382.3 39835.3 
4724.53 29312.5 39898.4 29982.6 35596.1 36948.6 29909.7 36531.2 35257.8 
18471.4 41055.2 32563.4 18703.1 41230.7 29843.8 22777.6 40506.7 33562.6 
24117.2 40398.4 32451.8 8959.05 38911 35380.9 11226.6 40214.9 37062.5 
9567.18 39509.7 34764.2 10453.1 40202.5 32937.5 18369.3 41169.3 30651.2 
16898.4 41230.7 28812.5 5070 27832.7 41569.1 4265.62 24671.9 40998.8 
5979.15 34832.5 39942.6 5226.75 33695.3 38093.8 30679.9 30366.7 43623.8 
31123.5 28539.1 42734.4 5921.6 24560.8 46033.1 6128.06 23125 47375 
31137.1 33995.8 36407.1 31593.8 34305.8 33710.9 31207.9 32506.5 36061.7 
32109.4 32148.4 34738.1 26839.3 39167.1 33604.9 28050.4 38851.6 32164.1 
10459.7 40073.5 33018.5 11742.2 40731.5 30617.2 17118.3 41388.5 24102.6 
15093.8 41230.7 24945.3 4655.54 30418.7 37956.3 4207.87 27250 37835.9 
4356.79 27093.1 28491.2 4207.87 26476.6 30875 6066.08 23555.7 46972.4 
5812.5 23640.6 49570.5 31650.1 29658.8 39389.8 31652.5 27765.6 37835.9 
31281.5 29704.8 33237.2 31593.8 31632.8 32086.7 19912 41526.1 27239.2 
18187.5 41743.2 27265.6 4351.12 27686.5 37585.8 4207.87 25187.5 36804.7 
4948.21 24257.3 28341.9 4736.91 24414.1 26234.4 29081.8 37497.1 31823.3 
[...]
CELL_DATA 1299
SCALARS radius float
LOOKUP_TABLE default
0.100794 1.14917 0.0641357 0.837895 0.0735665 0.975584 0.0460144 0.826377 0.0642907 
0.971619 0.0642914 0.969795 0.0452156 0.825831 0.0649722 0.401228 0.074157 0.791898 
0.0441899 0.784496 0.0663479 0.747617 0.0619137 0.435157 0.0561365 0.779126 0.0520948 
0.405387 0.0685559 0.744792 0.0788801 0.378958 0.0827334 0.375027 0.0563743 0.397954 
0.0552275 0.696409 0.0743747 0.693114 0.0764345 0.509657 0.0688152 0.364259 0.0824796 
0.326381 0.0620986 0.706958 0.0651412 0.350569 0.116992 0.257693 0.120823 0.70663 
0.0825733 0.695219 0.0701677 0.376269 0.101926 0.36154 0.063581 0.41513 0.0584446 
0.392526 0.131236 0.495831 0.0736647 0.688746 0.0741672 0.678864 0.0742696 0.704022 
0.0827787 0.340315 0.0958626 0.493362 0.066732 0.371911 0.10306 0.713768 0.0961387 
0.634196 0.0662371 0.438722 0.0765523 0.695097 0.0885679 0.640552 0.089339 0.403727 
0.0551586 0.688432 0.0748892 0.570577 0.0716382 0.482384 0.0919555 0.550225 0.0832855 
0.545733 0.0797701 0.381585 0.0987254 0.323081 0.0872075 0.483395 0.110072 0.308802 
0.0772762 0.386939 0.0789566 0.407584 0.0880272 0.634126 0.060356 0.516632 0.0621426 
0.394311 0.0924716 0.217534 0.122977 0.359595 0.0710342 0.30219 0.087495 0.426534 
0.109858 0.454563 0.0714797 0.410781 0.124613 0.403004 0.0928179 0.384143 0.0991762 
0.631925 0.0636052 0.228209 0.0753463 0.336106 0.0854299 0.293307 0.11404 0.365668 
0.109506 0.515057 0.0870488 0.333242 0.113389 0.2692 0.0944342 0.443656 0.0777601 
0.345554 0.133361 0.382687 0.0688177 0.415561 0.108508 0.286956 0.112605 0.412986 
0.0772531 0.25027 0.0713003 0.250175 0.162599 0.308434 0.0930076 0.366473 0.143699 
0.392976 0.136448 0.396095 0.085233 0.605288 0.0810485 0.171575 0.166588 0.184985 
0.0734355 0.483734 0.0866758 0.373646 0.095326 0.213636 0.167439 0.268092 0.146422 
0.346855 0.0718017 0.285285 0.135319 0.307876 0.159681 0.306495 0.115324 0.438773 
0.0999812 0.280518 0.076821 0.336638 0.084671 0.596045 0.0697943 0.463675 0.137837 
0.346494 0.117641 0.595545 0.0834103 0.335941 0.111434 0.584475 0.112202 0.447408 
0.100673 0.340719 0.131377 0.3341 0.117607 0.432047 0.0797161 0.345482 0.082213 
0.321862 0.134177 0.288709 0.144802 0.327826 0.190034 0.437923 0.0910737 0.567693 
0.0688291 0.247259 0.12116 0.307453 0.148712 0.338213 0.1135 0.426242 0.0669251 
0.331472 0.0993268 0.414366 0.166041 0.413804 0.124128 0.262326 0.166212 0.284822 
0.129345 0.323106 0.11711 0.565771 0.0757188 0.472687 0.057758 0.307276 0.203779 
0.318828 0.155588 0.320964 0.160811 0.4722 0.0578846 0.394556 0.0972371 0.360589 
0.145347 0.332338 0.073755 0.33136 0.0800887 0.389226 0.069382 0.409326 0.122586 
0.322372 0.148929 0.279608 0.127079 0.234185 0.228071 0.387193 0.173141 0.358386 
0.0653204 0.317682 0.154936 0.229045 0.189692 0.373374 0.0909063 0.37291 0.08758 
0.320785 0.15051 0.21422 0.209225 0.228316 0.108355 0.22157 0.0854134 0.832205 
0.0493854 0.195918 0.0775726 0.222454 0.0770531 0.971526 0.0837388 0.215659 0.068093 
0.753508 0.0595415 0.212329 0.0707917 0.201911 0.0925537 0.199914 0.0763393 0.192875 
0.0666984 0.209969 0.0970577 0.190464 0.0846435 0.191351 0.107377 0.784352 0.0520547 
0.208328 0.0477059 0.707159 0.0553126 0.250831 0.0613729 0.27071 0.0526775 0.244792 
0.0661844 0.23642 0.104221 0.136508 0.105279 0.229466 0.122112 0.204766 0.101513 
0.512479 0.105533 0.265296 0.048443 0.366449 0.103449 0.167735 0.0589051 0.193166 
0.115563 0.503528 0.0516864 0.708698 0.109286 0.264602 0.0956287 0.256066 0.0922863 
0.167322 0.120292 0.255881 0.0989786 0.691473 0.0829632 0.245673 0.125067 0.226822 
0.0695562 0.251349 0.0986841 0.186835 0.120365 0.235825 0.048257 0.412986 0.103922 
0.288981 0.0922508 0.198549 0.101495 0.484983 0.102202 0.165826 0.131994 0.223126 
0.115581 0.491455 0.0860755 0.22331 0.120823 0.554652 0.117553 0.276207 0.176015 
0.192326 0.0880447 0.380668 0.0963332 0.497047 0.0826482 0.197232 0.180785 0.30612 
0.0982978 0.369341 0.0613924 0.178178 0.134534 0.573168 0.107361 0.327256 0.099271 
0.288367 0.115135 0.255398 0.120214 0.197414 0.0751612 0.426785 0.0546791 0.362716 
0.0760361 0.437737 0.0948076 0.248079 0.101136 0.273921 0.0991776 0.319547 0.121293 
0.171377 0.148109 0.183109 0.111484 0.237619 0.100685 0.270552 0.0757323 0.186233 
0.112089 0.226795 0.118847 0.202542 0.104154 0.403318 0.0733124 0.18604 0.116549 
0.186845 0.117706 0.163853 0.155167 0.223098 0.140062 0.172607 0.151305 0.38226 
0.105082 0.260032 0.115166 0.285195 0.0797747 0.158074 0.146731 0.294738 0.133616 
0.243981 0.143218 0.317134 0.139465 0.274333 0.124995 0.371302 0.110752 0.188593 
0.173029 0.141813 0.135482 0.244382 0.106567 0.199262 0.185941 0.377513 0.077537 
0.237726 0.113961 0.181867 0.163673 0.303832 0.085089 0.199853 0.171169 0.144693 
0.139306 0.203865 0.155753 0.248863 0.136072 0.181449 0.142505 0.239304 0.113625 
0.277068 0.127573 0.482792 0.112187 0.331062 0.143404 0.168109 0.163302 0.154475 
0.149297 0.188097 0.169577 0.234198 0.107114 0.336265 0.140804 0.30485 0.0845683 
0.224214 0.163211 0.234844 0.176517 0.225281 0.16356 0.267191 0.0934268 0.287532 
0.168422 0.257435 0.0978181 0.226115 0.110397 0.443319 0.146476 0.197732 0.104073 
0.306337 0.149247 0.211463 0.161621 0.321838 0.168099 0.343178 0.146173 0.3487 
0.126383 0.263606 0.202612 0.194935 0.181158 0.301606 0.153651 0.422628 0.0779724 
0.250143 0.100801 0.234674 0.202845 0.177151 0.171517 0.216684 0.170986 0.224255 
0.192373 0.312429 0.197574 0.304889 0.223751 0.283938 0.170538 0.28252 0.166062 
0.229561 0.0956953 0.147425 0.144409 0.208194 0.159422 0.240842 0.136181 0.243711 
0.160611 0.211176 0.164406 0.253552 0.116864 0.348812 0.16427 0.25122 0.229803 
0.224536 0.200143 0.97587 0.0717776 0.0992682 0.0950142 0.826602 0.0773543 0.179735 
0.13893 0.224237 0.089785 0.123311 0.108798 0.970027 0.0868419 0.13628 0.129589 
0.125194 0.118535 0.754369 0.0954427 0.127005 0.124959 0.18354 0.138593 0.748399 
0.0927758 0.188044 0.0874286 0.105265 0.0999062 0.24937 0.0942948 0.173397 0.076142 
0.115819 0.109763 0.168752 0.0728546 0.513258 0.0850441 0.696208 0.0627431 0.151784 
0.118784 0.692107 0.0969271 0.188159 0.117906 0.159818 0.102831 0.121012 0.118367 
0.166043 0.111434 0.148769 0.129773 0.137775 0.109417 0.145442 0.111324 0.383747 
0.0701441 0.295753 0.1202 0.209946 0.131861 0.158478 0.147273 0.233982 0.118737 
0.641174 0.0915414 0.498307 0.0978356 0.358086 0.100161 0.216582 0.136612 0.190939 
0.115162 0.224581 0.127511 0.151489 0.109449 0.185108 0.166297 0.139434 0.128992 
0.22651 0.148527 0.226425 0.0951335 0.195238 0.102103 0.195754 0.107802 0.318895 
0.0985461 0.172684 0.112696 0.186201 0.117343 0.550337 0.081202 0.43226 0.0681028 
0.18684 0.0827625 0.170703 0.136427 0.222861 0.162552 0.428198 0.0969705 0.191713 
0.128047 0.21364 0.112976 0.216421 0.0819196 0.160674 0.0896 0.152782 0.0707917 
0.199764 0.14162 0.170388 0.112625 0.203275 0.143171 0.164448 0.097498 0.425257 
0.078123 0.233664 0.118253 0.172598 0.0973884 0.156595 0.150453 0.448736 0.103543 
0.184604 0.104568 0.167089 0.15524 0.21009 0.134426 0.632708 0.0979583 0.1791 
0.134179 0.180153 0.158568 0.180301 0.162337 0.167224 0.154046 0.606416 0.107515 
0.351736 0.12422 0.381128 0.11599 0.198905 0.130398 0.199974 0.112718 0.17571 
0.1076 0.282423 0.153768 0.230362 0.155256 0.192693 0.178868 0.16267 0.143354 
0.190599 0.155841 0.597067 0.102946 0.204043 0.161293 0.266329 0.176067 0.257652 
0.174633 0.217011 0.162446 0.18889 0.165368 0.487352 0.136788 0.240928 0.100258 
0.327481 0.121124 0.191739 0.177391 0.29867 0.142126 0.181035 0.174505 0.255656 
0.116791 0.225492 0.218682 0.247635 0.135143 0.227525 0.210299 0.216362 0.146491 
0.191154 0.163441 0.218282 0.199435 0.225181 0.180883 0.191819 0.179968 0.24868 
0.161708 0.246155 0.216427 0.162568 0.157758 0.320743 0.157862 0.420829 0.150088 
0.16079 0.153974 0.203566 0.16152 0.241938 0.155513 0.326778 0.135458 0.307217 
0.134794 0.210078 0.165357 0.22202 0.204042 0.289039 0.212426 0.320676 0.166725 
0.398725 0.125309 0.261932 0.194424 0.393625 0.126449 0.283495 0.166268 0.266924 
0.243408 0.430255 0.130221 0.170682 0.165962 0.273909 0.123963 0.209765 0.194209 
0.238907 0.168037 0.290352 0.157778 0.253062 0.201835 0.13246 0.122847 0.226522 
0.117826 0.285123 0.176748 0.260402 0.242429 0.212572 0.0938593 0.206289 0.107967 
0.826873 0.0821595 0.154347 0.074157 0.121689 0.111714 0.826182 0.0896021 0.198137 
0.0917445 0.404438 0.0800029 0.748788 0.0867869 0.792142 0.0770719 0.188763 0.127619 
0.187212 0.0802571 0.166879 0.155127 0.153531 0.144427 0.136928 0.123835 0.152821 
0.132591 0.745141 0.0834645 0.207239 0.104848 0.102414 0.0995947 0.714043 0.0749229 
0.714537 0.0911133 0.203349 0.120441 0.69368 0.0935022 0.112838 0.105961 0.329068 
0.0953141 0.179309 0.102621 0.300409 0.107469 0.689321 0.0935721 0.127838 0.120371 
0.106049 0.100801 0.123888 0.11928 0.19874 0.170024 0.146717 0.106322 0.145193 
0.141303 0.414333 0.0884253 0.153169 0.137924 0.209525 0.188038 0.172212 0.139102 
0.574004 0.0938139 0.178258 0.103364 0.170393 0.10992 0.249967 0.158706 0.189161 
0.103598 0.641894 0.0961617 0.17328 0.15308 0.22129 0.196262 0.552886 0.105616 
0.331312 0.10968 0.551599 0.107731 0.15036 0.137222 0.143945 0.0844435 0.151151 
0.135785 0.162881 0.148229 0.138996 0.127716 0.16062 0.119837 0.127572 0.117629 
0.370877 0.0935064 0.153439 0.142493 0.296137 0.101785 0.240166 0.179282 0.492801 
0.0992575 0.149013 0.125469 0.147341 0.141679 0.162589 0.125347 0.633535 0.0997849 
0.15746 0.124603 0.162352 0.149666 0.350234 0.107192 0.16849 0.149698 0.235528 
0.15994 0.19367 0.165299 0.200749 0.192332 0.178884 0.166079 0.378736 0.103434 
0.489275 0.111201 0.171706 0.156276 0.307662 0.102409 0.285076 0.13611 0.237716 
0.180947 0.599473 0.0862922 0.343234 0.134134 0.195817 0.191301 0.137212 0.124735 
0.247526 0.108259 0.193951 0.123224 0.174984 0.135066 0.188244 0.175461 0.173616 
0.148584 0.434711 0.114499 0.182443 0.109746 0.27522 0.155259 0.220662 0.191312 
0.234683 0.139343 0.207809 0.18208 0.267742 0.128713 0.218228 0.183355 0.446321 
0.121242 0.163209 0.155229 0.162211 0.156252 0.270077 0.168509 0.233877 0.15337 
0.170839 0.163631 0.156457 0.135438 0.19479 0.129868 0.567093 0.108356 0.223804 
0.199041 0.209424 0.202055 0.229739 0.173945 0.173254 0.159704 0.283066 0.163409 
0.25981 0.166473 0.335584 0.142565 0.219816 0.203741 0.248154 0.190963 0.205414 
0.188039 0.244195 0.221953 0.25006 0.222697 0.20837 0.195228 0.226458 0.188085 
0.268213 0.200769 0.25287 0.197529 0.214535 0.16956 0.194266 0.162118 0.418474 
0.134369 0.254736 0.127131 0.207167 0.185331 0.2329 0.204003 0.205405 0.16163 
0.199867 0.197513 0.242431 0.233018 0.22068 0.208862 0.336219 0.17097 1.14932 
0.0827298 0.97574 0.0764344 0.190349 0.102933 0.146197 0.138521 0.970225 0.0823981 
0.753859 0.0842431 0.219333 0.100275 0.212111 0.109462 0.116047 0.101663 0.747924 
0.0801248 0.745424 0.0777856 0.144104 0.135276 0.175334 0.139728 0.707966 0.0661683 
0.106599 0.0973155 0.779422 0.0813948 0.376586 0.0870839 0.121372 0.114422 0.13106 
0.103182 0.113142 0.10659 0.134834 0.108702 0.163418 0.158442 0.304544 0.104312 
0.130271 0.101167 0.158388 0.142376 0.177744 0.158427 0.138841 0.108933 0.137383 
0.12655 0.111213 0.10736 0.34339 0.102539 0.149014 0.116181 0.37344 0.0860473 
0.230747 0.128597 0.141469 0.122238 0.119277 0.104032 0.14766 0.124038 0.22085 
0.130333 0.175088 0.156369 0.385784 0.0967289 0.210836 0.119341 0.189906 0.174587 
0.695936 0.106782 0.157314 0.149333 0.483466 0.0911389 0.204546 0.147216 0.335643 
0.113047 0.634719 0.0894627 0.187085 0.130585 0.143949 0.126531 0.162467 0.141898 
0.140535 0.123574 0.136473 0.10926 0.284791 0.136536 0.131141 0.124709 0.154999 
0.126051 0.456007 0.096474 0.188523 0.17296 0.189209 0.179622 0.172483 0.160012 
0.405053 0.100121 0.170058 0.127067 0.165016 0.134659 0.516269 0.0988863 0.265872 
0.106604 0.292074 0.108773 0.189859 0.129417 0.368885 0.109192 0.151974 0.116347 
0.382378 0.11653 0.376147 0.101781 0.174212 0.157429 0.144766 0.124371 0.181038 
0.125647 0.22155 0.143627 
