# vtk DataFile Version 4.1
vtk output
ASCII
DATASET POLYDATA
POINTS 1300 float
16125 47875 54078.1 15093.8 45355.7 51757.8 15403.1 46111.5 52453.9 
19476.6 43808.8 47117.2 15186.6 45582.4 51966.6 12000 42777.5 45054.7 
18196.3 44161.6 47872.3 18187.5 41887.6 42218.8 12548.2 42868.3 45414.2 
11226.6 40697.5 40414.1 19092.5 43914.6 47343.8 25664.1 39674.5 46085.9 
22641.1 41624.9 46664.6 24198.7 39109.4 39898.4 11940.3 41869.7 43114.1 
7340.81 36531.2 42734.4 11554.9 41236.7 41656.1 15867.2 41229.6 37320.3 
9973.2 39717.1 42056.1 6760.22 36789.1 36289.1 25252.1 39724.9 45989.5 
28551.6 36273.4 44281.2 8445.59 37287.5 42948.1 7146.94 32148.4 46343.8 
27561.7 37308.9 44793.7 28034.9 36789.1 39898.4 23478 39969 40901.7 
22054.7 40398.4 34016.2 7672.25 36758.1 42798.5 5448.47 31890.6 40929.7 
6969.15 36625.5 36951.3 4752.38 33695.3 33710.9 28338.5 36296.2 44289.9 
30635.7 32664.1 42476.6 14738.9 41231.7 37624.7 16125 41230.7 31132.8 
6019.58 32591.3 41614.7 5239.12 27507.8 42218.8 28261 36668.2 40787.1 
30562.5 34923.5 36804.7 28102.7 36752.8 40165 27210.9 38135.9 36031.2 
22179.7 40528.4 34428.3 21281.2 41230.7 29585.9 8591.31 38295 39707.9 
9886.97 39882.8 34484.4 5592.53 28853.9 42553.1 5812.5 24414.1 46116.9 
5274.7 33909 34333.2 4207.87 29570.3 31906.2 15031.8 41231 32271.8 
13804.7 41230.7 27781.2 5619.76 32100.8 41135.2 4207.87 29828.1 36804.7 
4527.87 30871.9 32634.3 4207.87 30601.6 28554.7 29946.6 33753.7 43020.5 
30562.5 28532.9 45054.7 30429 32991 42639.8 32109.4 29506.4 38609.4 
27991.4 37388.7 37388.7 30046.9 37046.9 33030.3 5743.3 24541.2 45758.2 
5753.72 21062.5 47890.6 31459.3 30879.3 39406.4 31667 30601.6 34226.6 
27366.1 38059.1 36093.3 25921.9 39882.8 32305.3 21740.4 41141.1 30185.5 
22828.1 41945.3 24529.7 6822.92 36740 36487.7 6585.94 37304.7 31437 
4303.89 30682.7 29778.6 4523.44 25673.2 26492.2 14280.4 41230.8 28307.9 
14835.9 41230.7 22882.8 30148.8 29155.1 44187.2 29789.1 24788.4 44281.2 
13947.4 41230.7 27939.2 9371.34 39882.8 28812.5 4357.82 28410.5 28972.6 
4265.62 24114 30359.4 4256.86 30570.7 28673.6 4207.87 30085.9 24945.3 
31914.4 29918.3 38848.5 31078.1 25703.1 40185.1 29471 36994.8 33652.7 
29897.3 36015.6 29070.3 29633 36622.7 31911.4 28035.9 39367.2 29070.3 
22787.1 41439.4 25638.8 24632.8 39882.8 21544.3 12071.2 40678 27792 
9371.34 39882.8 25203.1 4726.28 26601.8 26800.8 6480.75 23898.4 21078.1 
4367.92 29952.3 25199.9 4723.5 29054.7 21593.8 15163.5 41374.7 23536 
16640.6 41745.2 19015.6 4424.85 30784.9 31320.7 4781.25 34289.3 29070.3 
4584.28 25951.8 26584.8 6070.31 21578.1 25835.3 5386.7 23590 26180 
5296.88 21062.5 29267.3 31604.7 30684.9 35780.5 30605.8 25703.1 32679.7 
31167.4 26480.3 39531.4 30103.6 23125 38093.8 29690.3 25867.3 44681.5 
28184.4 21578.1 47375 23990.1 40122.6 22169.6 23601.6 38593.8 18114.3 
29118.1 24237.4 45705 28529.9 20289.1 43507.8 30905.5 27197.7 33609.9 
30106.7 27250 29843.8 29778.5 35890.8 29476.5 29558.1 33953.1 26492.2 
29624.2 34534.4 27387.5 28040.1 36015.6 24171.9 6839.11 24249.3 21654.9 
8545.31 22867.2 18500 28642 35452.8 25393.8 26970.7 39367.2 25460.9 
4701.74 29513.6 22134.3 5253.56 30601.6 18500 28220.7 35846.8 24538.5 
26440.6 35242.2 20304.7 29974.6 27905.7 44375 29078.5 26476.6 48148.4 
15951.4 41486.9 19451.5 15867.2 41246.1 15406.2 29588.5 34220.5 26904 
29895.3 30343.8 27265.6 5429.39 21307.6 28767.1 6070.31 17938.8 31648.4 
23533 40623 23487.9 21539.1 41747.3 20046.9 6083.72 21785.5 26047.9 
7875 18029.6 26492.2 30166.3 23632.9 38084.9 28500 20281.8 35257.8 
4955.94 33890.1 29140.7 5812.5 36868.5 26750 28301.8 20572.5 43674.2 
27210.9 17917.2 42218.8 6074.34 21640.3 25899.1 8390.62 19659 23140.6 
30474.1 27225.9 31576.2 28568.1 23640.6 29585.9 7873.56 20335.1 23524.5 
9164.06 20667.5 20562.5 23653.7 38433.3 18851.8 23343.8 36273.4 16113.7 
4911.39 29927 20753.3 6843.75 26683.8 17468.8 14934.2 41273.9 23078.8 
12966.3 40398.4 20304.7 5693.7 29001.4 19154 6772.6 29570.3 15664.1 
4307.91 30286.3 27075.7 4719.37 33437.5 24687.5 8287.5 23420.8 18882.6 
9994.22 24156.2 15148.4 26848.6 34972.3 21245.4 25921.9 32148.4 18858.9 
6276.36 29308.6 17269.4 6326.06 33695.3 15664.1 6144.25 18383.4 30978.8 
7834.78 14617.2 32421.9 29133.2 21555.2 36332.1 26953.1 18101.8 38093.8 
9104.36 20481.5 21181.8 11226.6 19979.7 19273.4 27538.2 18713.8 42655.4 
25994.1 15648.4 45054.7 6621.72 27502.1 17713.8 8132.81 26734.4 15006.1 
6764.96 29535.8 15772.7 7674.94 29828.1 13343.8 4749.38 32956.6 24729.8 
5296.88 35321.6 22109.4 28462.3 20541.7 35394.9 26285.9 18226.6 32937.5 
6486.42 31156.6 15929.3 6984 32148.4 13859.4 28792.8 24464.3 29618 
26497.3 22609.4 25976.6 6970.7 32162.2 14432.9 8132.81 34726.6 12780.7 
23363.2 36423.5 16609.6 22884.8 33179.7 14375 26918.5 18388 37743.1 
24960.8 16164.1 38351.6 10359.5 40133.4 25640 9679.69 39684.8 21851.6 
26996.7 19145.1 33424.1 25921.9 19000 30269.7 7734.96 18445.8 26855.3 
9421.88 15223.6 28296.9 25783.3 32320.9 18933 24632.8 30343.8 17077.9 
6921.92 16650.9 31642.6 6328.12 15390.6 35948.8 24763 30877.6 17227.4 
23343.8 30343.8 14567.8 7809.62 14959.2 32474 9937.5 11975.1 34742.2 
22473.1 41350 27002.8 19734.4 42260.9 23914.1 26316.5 18406.3 33113.5 
23915.1 16164.1 32421.9 13362.3 40456.8 20512.3 12000 39126.9 16437.5 
26138.8 16079.1 44370.8 24050.2 12812.5 44796.9 27075.7 23491.7 26492.1 
25939.4 23640.6 23656.2 5414.75 34996.8 22456 7194.38 37562.5 19531.2 
8958.74 13347.7 33698.8 8005.97 12812.5 37320.3 8143.85 34339.1 13161.2 
10453.1 36904.6 12312.5 6500.34 15365.9 35709.2 6328.12 14461.5 38351.6 
9252.34 12935.9 34011.8 11453.4 11781.2 32937.5 25937.1 18788.8 31133.6 
23343.8 17128.3 28554.7 26037.5 15777.7 44849.5 26467.4 16164.1 47632.8 
24011.5 13019 44766.8 22121.7 10750 45054.7 26280.3 23595.9 24507 
26953.1 28013.1 21851.6 24223.7 30674.7 16216.7 22851.8 26734.4 15406.2 
26576.6 22734.5 26275.6 24956.6 20289.1 26234.4 23414.8 30495.7 14684.8 
21651.5 30601.6 11281.2 23740.5 17661.1 28658.1 21796.9 17133.4 25976.6 
6410.73 14438.7 37956.6 6585.94 12554.7 40626.5 23263.4 27916.5 15649.4 
21362.7 26992.2 12570.3 26277.1 25155.8 23129.5 24959.7 26218.8 19789.1 
12408.7 39525.9 17659.9 9164.06 38148.2 17210.9 6871.49 13100.9 39520.9 
9164.06 10669.6 40929.7 23462.8 17288.1 28585.7 21281.2 15066.8 29585.9 
22975.3 27089 15479.2 22828.1 24363.5 17210.9 29592.6 31411.9 26804 
28500 28281.2 24872.1 21435.1 27214 12646 19992.2 26992.2 10201.5 
21384.4 27058.7 12593 20250 23805.6 13601.6 8981.53 35483.1 13138.1 
9673.5 37562.5 14632.8 22380 17291.7 26781 22358.9 19257.8 23398.4 
21769.4 17186.7 26091 19476.6 16937.5 23863.5 21257.5 15287.9 29482.4 
18703.1 13317.8 30359.4 22538.6 18871.3 24341.6 23601.6 20289.1 23611.9 
19987.3 17169.7 24111.1 18703.1 18115.2 21335.9 26915 27602.9 22341 
27984.4 30593.3 22882.8 18798.6 13650 30295.3 16125 12252.5 31132.8 
26041.7 23627.2 23911.5 23859.4 22554.7 21078.1 19519.2 14309.3 29702.1 
16393.1 13328.1 28554.7 17996.5 13230.8 30546.6 17671.9 12039.1 34084.2 
23933.5 22683 21252.8 22253.7 22093.8 19273.4 20318.8 14759.4 29601 
18546.4 14617.2 27265.6 22285.3 19175.5 23479.2 21281.2 19857 21078.1 
22378.8 22036.3 19699.6 19907.6 20546.9 18500 21242.1 21351.2 19147.8 
20250 22210.3 16179.7 15850.7 47204.9 53460.9 18187.5 44856.5 52273.4 
17872.8 45459.9 52220.3 19734.4 44327.5 50726.6 14743.9 44666.9 48964.1 
15867.2 44638.9 46859.4 19499.6 44536.5 50771.4 21023.4 43779.9 49179.7 
13988.3 43909 47156.8 14835.9 43750 44929.9 20157.1 43227.7 47140 
20765.6 42261.9 44796.9 20968.9 43727.5 49544.6 22570.3 42728 48664.1 
20763.9 42244 44926.1 21281.2 41369.9 43250 14571 43627.5 45187.7 
14578.1 42568.2 42476.6 17323.5 42402.6 43111.2 16640.6 41751.4 41187.5 
21033.3 41580.6 43522 20507.8 41189.4 41960.9 16845.5 41946.8 41764.6 
18187.5 41226.5 40156.2 20603.8 41178.3 42027.4 20250 40702.7 40414.1 
23993.7 39918.2 42993.2 24787.5 39109.4 41960.9 18046.8 41312.3 40165.6 
19218.8 40709.9 38351.6 7966.16 36959.3 42855.3 7101.56 36922.1 40671.9 
27414.8 37331.5 42750.2 26437.5 37938.9 40929.7 21957.9 40188.1 37713.3 
20507.8 40210.8 36546.9 15526.4 41226.4 37234.6 16898.4 41200.8 35773.4 
7715.36 37393.5 38219.4 5812.5 35320.6 38867.2 23913.5 39460.5 40005.1 
24375 38977.4 37578.1 7378.87 33355.5 45174.2 6299.25 30859.4 44539.1 
20827.1 40275.1 36609.1 19992.2 40714 34742.2 24069.1 39243.6 38247.1 
23343.8 39671.4 36289.1 7293.99 32282.2 46158.2 7617.19 30085.9 47942.2 
29464.2 34516.5 43401.4 30067.5 34468.8 40156.2 19965.2 40666.7 34996.1 
18703.1 41171.9 32981.8 14506.8 41201.9 35667.6 12515.6 41020.3 33968.8 
28055.3 36778.2 39978.5 26437.5 37936.8 38867.2 22373.3 40318.9 35520.3 
24117.2 39882.8 34016.2 30948.7 32410.2 40592.9 31151.3 32664.1 39382.8 
19080 41043.7 33266.8 18960.9 41230.7 31132.8 5112.8 31060.7 39756.7 
4721.44 29054.7 39640.6 18812.6 41180.1 31564.6 17671.9 41230.7 30101.6 
12735.3 41023.5 38880.2 12773.4 40731.5 37062.5 5238.71 27540.9 42280.3 
4732.78 25703.1 41960.9 4755.16 29379.8 39491.5 4207.87 27507.8 38351.6 
6226.75 35616.6 38584 5101.97 33437.5 38093.8 4813.84 30844.1 38510.3 
4722.47 31890.6 36546.9 9445.8 39533.7 35088.3 9421.88 39997.3 32164.1 
30279.7 35238.5 36876.8 31478.2 34468.8 34226.6 28560.2 37600 35019 
28331.9 38593.8 33195.3 30328.4 31623.1 43148.2 31136.9 30085.9 42476.6 
30912.5 30248.3 42694.1 31093.6 28281.2 42734.4 4796 25910.6 41902.8 
4208.91 23640.6 40929.7 9793.13 39941.2 33241 12000 41020.3 30875 
22018.8 41220.4 28976.1 20250 41745.2 27265.6 18035 41280.3 30216.6 
17414.1 41711.2 27265.6 5746.4 23497.6 46397.9 6267.28 23382.8 48921.9 
31648.3 30626.6 34692.7 31652.5 32406.2 33195.3 17901.5 41582.8 27776.8 
18445.3 41745.2 25718.8 4355.65 27832.8 38406.7 4207.87 26218.8 36546.9 
31578.1 32070.1 33274.8 31128.7 33437.5 30875 4436.3 27904 28038.9 
4207.87 28281.2 26492.2 31570.8 28336.8 39162.6 31593.8 26909.7 37578.1 
6298.63 36491.2 32990.5 5738.25 35757.8 31648.4 31590.9 27306.6 37789.4 
31617.5 26992.2 36031.2 31661.4 30609.1 34366.4 31593.8 29564.1 32679.7 
[...]
CELL_DATA 1299
SCALARS radius float
LOOKUP_TABLE default
0.0566152 1.14508 0.0504247 0.872712 0.0505856 0.94139 0.0998355 0.866424 0.0728165 
0.936957 0.064119 0.93266 0.0732665 0.865247 0.0673098 0.513253 0.0525643 0.800038 
0.0573061 0.867587 0.0553062 0.434699 0.0788928 0.86747 0.0460057 0.535625 0.072737 
0.396441 0.071392 0.732674 0.0815695 0.755703 0.0463987 0.506054 0.100038 0.394994 
0.0570512 0.603221 0.0726175 0.594429 0.0595559 0.483304 0.0875678 0.752666 0.0887136 
0.320307 0.0991807 0.719678 0.0525421 0.48745 0.0649864 0.294502 0.127163 0.719328 
0.0544345 0.753015 0.0909834 0.698053 0.0578807 0.591392 0.0772087 0.254268 0.175021 
0.696865 0.0579223 0.240209 0.0608599 0.481123 0.0829188 0.259677 0.0703535 0.699388 
0.0698535 0.483415 0.0719403 0.432654 0.0615353 0.319549 0.0920768 0.610953 0.123276 
0.484959 0.0561937 0.579308 0.0895005 0.571484 0.0595123 0.56998 0.0992992 0.461079 
0.0878437 0.31865 0.0712238 0.588772 0.0927982 0.438947 0.0908551 0.419576 0.116702 
0.715932 0.0794654 0.532904 0.0558621 0.530747 0.0888357 0.521497 0.0790732 0.574127 
0.0777833 0.423609 0.0609968 0.380754 0.113703 0.416339 0.0656731 0.497241 0.0780885 
0.559238 0.0585708 0.556084 0.0637274 0.359442 0.0910645 0.528382 0.103601 0.434405 
0.0811665 0.499995 0.074304 0.431309 0.130856 0.270982 0.147031 0.287212 0.115642 
0.454009 0.103053 0.447868 0.0832355 0.374802 0.089009 0.572198 0.0710829 0.282746 
0.104542 0.373459 0.0908194 0.298891 0.082635 0.490034 0.0607405 0.287978 0.0956891 
0.363298 0.0937126 0.433076 0.11168 0.371371 0.0935774 0.419722 0.06948 0.48473 
0.0839386 0.319001 0.0783449 0.496435 0.0785567 0.38419 0.147054 0.451211 0.0783002 
0.55228 0.0909601 0.269687 0.175597 0.363026 0.0683833 0.258302 0.103273 0.236152 
0.106474 0.298796 0.0931171 0.521969 0.0786618 0.344988 0.107508 0.482796 0.087643 
0.335841 0.119063 0.343201 0.143092 0.270049 0.0704672 0.287905 0.0851293 0.520345 
0.0825622 0.296057 0.11227 0.473733 0.103085 0.446792 0.0949079 0.464708 0.0893751 
0.354178 0.102506 0.475048 0.102898 0.156963 0.15008 0.348773 0.0969946 0.354567 
0.0989197 0.477084 0.0811513 0.296571 0.147674 0.343434 0.15562 0.322736 0.154003 
0.348023 0.113122 0.262208 0.17322 0.515539 0.0736612 0.231276 0.166316 0.306278 
0.133609 0.467201 0.101737 0.463011 0.08496 0.187664 0.151531 0.283047 0.150664 
0.50925 0.071211 0.338559 0.129356 0.421554 0.0823729 0.391491 0.0808944 0.29852 
0.147129 0.334296 0.179897 0.399925 0.0831369 0.289807 0.178986 0.245002 0.100785 
0.359811 0.122919 0.221551 0.217689 0.303055 0.184703 0.402595 0.089272 0.343159 
0.0921202 0.39909 0.100477 0.291792 0.092142 0.333395 0.101511 0.278578 0.173443 
0.347035 0.146031 0.347541 0.0736849 0.378761 0.165044 0.344204 0.102014 0.346059 
0.111479 0.397884 0.118365 0.194483 0.187999 0.337387 0.166406 0.33328 0.147842 
1.14674 0.0761681 0.187093 0.0720232 0.872512 0.0853836 0.182786 0.0898282 0.871777 
0.0509874 0.936612 0.0393537 0.17898 0.135094 0.20666 0.0680652 0.225989 0.0673359 
0.213994 0.0909104 0.173398 0.0741651 0.206491 0.0605399 0.151309 0.14512 0.53838 
0.0520173 0.187358 0.15196 0.398798 0.103791 0.604115 0.099216 0.526928 0.0536592 
0.189144 0.0896411 0.737901 0.0676443 0.170794 0.0801132 0.262219 0.102417 0.291389 
0.0527053 0.166177 0.123592 0.187197 0.122013 0.755605 0.0951467 0.286706 0.0839301 
0.497088 0.0964685 0.135871 0.0924153 0.495373 0.0538341 0.697354 0.0893289 0.28141 
0.0882293 0.293097 0.0840547 0.278899 0.0905887 0.509798 0.0761144 0.218989 0.0913019 
0.238611 0.0974754 0.189083 0.109854 0.226327 0.0675839 0.283189 0.0968895 0.194704 
0.142561 0.574003 0.0909119 0.441069 0.057026 0.168897 0.114527 0.176019 0.167417 
0.280256 0.0849348 0.480154 0.0998373 0.265971 0.0993001 0.249135 0.150522 0.263213 
0.0613276 0.262421 0.161882 0.203498 0.151327 0.214768 0.10287 0.604238 0.078516 
0.576757 0.0881469 0.255848 0.0666846 0.137722 0.124447 0.194228 0.0764173 0.208333 
0.158312 0.287693 0.106484 0.459244 0.116745 0.254632 0.0621343 0.192495 0.067717 
0.12425 0.119521 0.184488 0.173134 0.22419 0.0839798 0.189806 0.102823 0.175671 
0.163025 0.245574 0.0974268 0.231701 0.0668573 0.24958 0.0906259 0.36788 0.126627 
0.218333 0.132015 0.419235 0.11489 0.311325 0.122919 0.229519 0.0962337 0.26303 
0.104093 0.257834 0.150169 0.225891 0.174627 0.233666 0.138625 0.254305 0.127862 
0.570485 0.0872091 0.431496 0.102441 0.17958 0.137546 0.346513 0.124101 0.17719 
0.0995819 0.212035 0.160239 0.212026 0.132484 0.258199 0.0644127 0.209146 0.13546 
0.256723 0.130321 0.198675 0.135109 0.177728 0.16858 0.344706 0.103993 0.138399 
0.13374 0.254839 0.0531581 0.253294 0.181533 0.172548 0.104559 0.270775 0.0877044 
0.29142 0.0856821 0.204055 0.137401 0.251297 0.150858 0.167044 0.15209 0.25612 
0.155119 0.174658 0.130305 0.25346 0.0747025 0.509127 0.0816519 0.265477 0.101372 
0.266564 0.133597 0.157697 0.150981 0.473011 0.118551 0.290913 0.187249 0.230278 
0.167599 0.251147 0.157369 0.355059 0.137658 0.235546 0.177617 0.23413 0.186255 
0.226547 0.172868 0.195439 0.182215 0.241484 0.129201 0.254873 0.121348 0.239077 
0.139382 0.318156 0.151449 0.220857 0.118042 0.293479 0.0741924 0.282225 0.0867768 
0.302799 0.172543 0.243193 0.220568 0.369805 0.158616 0.251086 0.180388 0.280446 
0.0940783 0.168101 0.163139 0.282837 0.197011 0.176265 0.156189 0.24197 0.220681 
0.184372 0.178151 0.280339 0.253081 0.310201 0.0858725 0.287996 0.139495 0.181329 
0.175796 0.223418 0.162483 0.342134 0.144081 0.161126 0.147293 0.198303 0.191437 
0.306447 0.138591 0.272524 0.127303 0.25515 0.155264 0.316906 0.180559 0.331269 
0.123671 0.275776 0.188325 0.318835 0.128442 0.260011 0.249413 0.94209 0.0727371 
0.941946 0.0741527 0.218634 0.086683 0.12468 0.0850075 0.153439 0.091686 0.213459 
0.0965534 0.212557 0.0798321 0.196869 0.0683064 0.139452 0.0897522 0.145304 0.141713 
0.192392 0.110844 0.438804 0.0931797 0.136323 0.0884933 0.540886 0.0885078 0.290856 
0.100014 0.528939 0.0952031 0.203907 0.0916379 0.756128 0.0899691 0.161768 0.0759492 
0.198099 0.106681 0.172005 0.104789 0.152017 0.145415 0.721635 0.0714454 0.491951 
0.0730805 0.182405 0.162012 0.327482 0.0924534 0.15562 0.117611 0.155544 0.137728 
0.577875 0.0783502 0.139266 0.1298 0.132218 0.124471 0.156771 0.0876282 0.205439 
0.0903186 0.142569 0.104796 0.7001 0.101477 0.524146 0.0817051 0.149118 0.102395 
0.212067 0.11418 0.231305 0.076384 0.171378 0.10008 0.197921 0.148472 0.225493 
0.0791797 0.173763 0.0867269 0.164912 0.0878881 0.149956 0.139233 0.216174 0.188443 
0.577814 0.101863 0.463368 0.113631 0.114479 0.109318 0.197595 0.112811 0.162719 
0.127178 0.302752 0.106759 0.181012 0.119239 0.132579 0.128004 0.166374 0.156386 
0.422621 0.117447 0.277155 0.111628 0.532503 0.114187 0.127068 0.12191 0.375698 
0.0980546 0.188394 0.142012 0.156357 0.152003 0.231499 0.114753 0.176311 0.113619 
0.36765 0.120366 0.189488 0.150624 0.196722 0.121062 0.164272 0.0878011 0.131854 
0.126182 0.308358 0.107636 0.22169 0.125239 0.193851 0.113398 0.227878 0.131952 
0.293264 0.110234 0.478873 0.119675 0.297164 0.114277 0.209305 0.190119 0.370469 
0.0815647 0.21376 0.133532 0.192081 0.166557 0.325971 0.131748 0.351793 0.135323 
0.203628 0.115404 0.476368 0.121292 0.148382 0.136043 0.235569 0.19211 0.130074 
0.127045 0.194622 0.168427 0.188743 0.13237 0.326516 0.134209 0.162206 0.154717 
0.23974 0.152254 0.155866 0.146708 0.298918 0.162756 0.18922 0.122583 0.332128 
0.144559 0.26234 0.173914 0.184027 0.163743 0.158043 0.120508 0.156899 0.15201 
0.245186 0.143777 0.317242 0.159984 0.223534 0.186259 0.198066 0.134332 0.191588 
0.119451 0.246643 0.10329 0.235691 0.118093 0.234105 0.169377 0.233275 0.154978 
0.512019 0.129375 0.181062 0.134929 0.281882 0.204114 0.258666 0.160341 0.265479 
0.198756 0.221443 0.216909 0.236241 0.18087 0.280045 0.159615 0.272528 0.232662 
0.1937 0.186001 0.190031 0.180068 0.215154 0.18922 0.237816 0.19264 0.262428 
0.151423 0.230967 0.143974 0.289367 0.225916 0.408371 0.14177 0.236094 0.126158 
0.234722 0.17251 0.232342 0.149234 0.144836 0.138177 0.209682 0.167782 0.228381 
0.165777 0.481939 0.128524 0.205298 0.191242 0.255699 0.156198 0.250364 0.231843 
0.942322 0.0851129 0.113906 0.102286 0.0968218 0.0920296 0.866685 0.0837676 0.138343 
0.055357 0.152571 0.0909261 0.136051 0.0790441 0.132925 0.122865 0.536525 0.0918775 
0.125429 0.118594 0.439949 0.0872113 0.133667 0.119236 0.189478 0.115129 0.117152 
0.113628 0.129835 0.114352 0.265511 0.0882624 0.118906 0.0935329 0.395793 0.0721026 
0.118673 0.110841 0.108633 0.104329 0.18486 0.119665 0.173724 0.152254 0.211484 
0.0963048 0.145011 0.0814368 0.204606 0.105803 0.138983 0.128957 0.325008 0.113656 
0.281726 0.083113 0.117424 0.113524 0.217691 0.116603 0.150581 0.134109 0.146517 
0.14293 0.164853 0.156967 0.169418 0.148539 0.275925 0.129908 0.111203 0.107147 
0.129506 0.117605 0.132492 0.117029 0.486042 0.0893079 0.147948 0.0819233 0.197541 
0.0982463 0.240031 0.153003 0.113708 0.10033 0.212805 0.123508 0.141748 0.131967 
0.15702 0.147653 0.195194 0.114626 0.22178 0.100077 0.162035 0.152912 0.151744 
0.135703 0.114795 0.110119 0.561553 0.0737084 0.498113 0.0865377 0.199417 0.158243 
0.369834 0.0927411 0.36281 0.109628 0.436314 0.102769 0.201018 0.151835 0.176573 
0.1218 0.529273 0.0907588 0.186665 0.136695 0.557186 0.100801 0.16658 0.159137 
0.174487 0.152378 0.111334 0.105645 0.456715 0.118961 0.136783 0.131237 0.158074 
0.147447 0.2627 0.106545 0.571718 0.106465 0.298239 0.109291 0.12968 0.1212 
0.573401 0.105823 0.177203 0.143616 0.179942 0.133062 0.359547 0.0971253 0.191063 
0.113751 0.151401 0.143188 0.182269 0.17257 0.367898 0.12498 0.205329 0.165612 
0.157212 0.13871 0.198345 0.17568 0.171628 0.108261 0.181283 0.16412 0.130009 
0.12543 0.449412 0.116437 0.521529 0.0987911 0.216029 0.167117 0.2052 0.184839 
0.200844 0.178468 0.233888 0.161011 0.280638 0.131025 0.186617 0.0952759 0.168192 
0.136538 0.353225 0.118053 0.176549 0.11245 0.170524 0.152357 0.230921 0.201156 
0.179923 0.170536 0.217834 0.161084 0.1853 0.159309 0.213412 0.176943 0.195311 
0.171297 0.22133 0.198912 0.140748 0.130559 0.424663 0.118635 0.345654 0.135562 
0.221771 0.192963 0.225773 0.20646 0.227362 0.190322 0.228884 0.217885 0.214436 
0.20178 0.287036 0.126611 0.261569 0.155071 0.269012 0.222155 0.296243 0.158294 
0.171094 0.158148 0.224801 0.209507 0.308706 0.173133 0.226146 0.206856 0.329296 
0.184576 0.231078 0.206978 0.233307 0.221329 0.226941 0.205699 0.166671 0.156707 
0.318888 0.153954 0.204389 0.195677 0.207648 0.180074 0.221405 0.170618 0.225016 
0.197041 0.186666 0.166464 0.271042 0.236527 0.244405 0.220962 0.872632 0.0649322 
0.118837 0.101826 0.227222 0.0661902 0.108594 0.0996862 0.171096 0.136496 0.12177 
0.106009 0.932902 0.0857227 0.513873 0.0788958 0.120493 0.112769 0.140623 0.1266 
0.200442 0.113864 0.752977 0.0807942 0.437399 0.0670372 0.175881 0.157604 0.529773 
0.0888491 0.115479 0.107396 0.134089 0.117486 0.105486 0.100638 0.217265 0.0966679 
0.258743 0.0831491 0.134547 0.115289 0.19849 0.114544 0.153606 0.0987303 0.330451 
0.0987742 0.164111 0.0926601 0.13859 0.121657 0.592053 0.0885787 0.142127 0.107554 
0.158328 0.154112 0.100683 0.0972852 0.120437 0.109306 0.180915 0.0907308 0.482754 
0.104365 0.171789 0.129513 0.28686 0.0963598 0.174868 0.166315 0.235082 0.11965 
0.442829 0.101031 0.122792 0.104438 0.153786 0.142609 0.238983 0.0700357 0.146285 
0.127174 0.224259 0.141804 0.177244 0.159786 0.133529 0.12677 0.424338 0.0973825 
0.234227 0.123604 0.200246 0.129119 0.196471 0.115043 0.425186 0.0947916 0.449777 
0.104895 0.37462 0.110684 0.195752 0.159209 0.375066 0.0650167 0.131064 0.125037 
0.135338 0.119989 0.129609 0.123908 0.200771 0.10786 0.161797 0.133179 0.252118 
0.10673 0.491191 0.0942023 0.180276 0.168355 0.169007 0.144552 0.318633 0.129566 
0.175779 0.157523 0.210056 0.194694 0.1509 0.143252 0.15784 0.141902 0.377906 
0.0979711 0.138275 0.111784 0.217899 0.189606 0.239447 0.130101 0.213042 0.163168 
0.167288 0.147589 0.263566 0.127206 0.149914 0.104112 0.452872 0.100606 0.140858 
0.133598 0.157923 0.148302 
