# vtk DataFile Version 4.1
vtk output
ASCII
DATASET POLYDATA
POINTS 1300 float
16125 47875 54078.1 15093.8 45354.6 51500 15403.1 46110.7 52273.4 
19764.3 43750 46859.4 15186.6 45581.5 51732 12000 42777.5 45054.7 
18329.9 44134.8 47664.9 17929.7 41945.3 42171.3 12655.1 42928.7 45430.1 
11608.1 40914.1 40671.9 19334 43865.4 47101 25782.7 39625 46085.9 
18049.8 42602.1 43819.4 23397.4 39367.2 40156.2 12341 42324.3 44002.6 
7617.19 36561.2 43507.8 17747.9 42232.1 42428.4 16125 41225.5 37062.5 
9412.18 38751.1 43695.8 6776.72 36789.1 37062.5 25010.3 39704.3 45824.2 
28551.6 36273.4 44281.2 21793.1 40337.7 41255.1 21539.1 40203.5 35257.8 
8419.29 36988.1 43892.5 6807.65 31632.8 45570.3 27449.3 37346.7 44207.7 
29531.2 35362.8 39898.4 7935.84 35381.5 44395.8 5554.69 32148.4 40736.8 
16130.1 41497.1 37933.8 13031.2 41224.5 32937.5 7046.6 36478.5 37813.6 
4728.66 33437.5 32164.1 7018.03 32295.2 44834.4 5489.72 26992.2 43250 
28240.4 36592.9 42570.2 31088.4 31632.8 42992.2 28940.1 36064.6 40505.8 
29273.4 36597.2 36031.2 21676.2 40275.9 38496.4 25664.1 38851.6 36077.7 
21767.5 40372.7 35597.3 22828.1 41230.7 29585.9 14208.8 41328.1 34836.1 
17156.2 41230.7 29585.9 11562.9 41189.4 40849.1 10399.5 39882.8 36546.9 
5948.21 28583.1 43725.3 4207.87 27250 38351.6 29066.8 36267 38805.5 
31851.6 32664.1 36077.7 15763.7 41264.8 31026.5 14578.1 41230.7 26750 
10281.5 40103.1 36768.6 8648.44 39176.4 32421.9 5515.5 27207.1 43211.5 
4265.62 23640.6 41515.4 5497.45 27056.6 43238.4 6128.06 22609.4 47890.6 
5467.03 33671.7 34033.1 4207.87 27507.8 31390.6 4950.79 31505.4 32372.2 
4207.87 30085.9 27265.6 24448.8 39466.2 36340.2 26953.1 39680.7 31906.2 
30318.6 32353.8 42288.4 31593.8 28539.1 40960.6 30857.4 31849.1 42781 
30046.9 26734.4 45639.4 22718 41169.1 29801.5 23343.8 41746.3 25203.1 
31016.1 33744.9 36896 31134.8 33437.5 31132.8 15218.3 41249.1 29059.3 
10453.1 40516 27781.2 4599.34 28829.8 31199.1 4722.47 24671.9 27007.8 
14997.8 41282.9 27129.4 15609.4 41547.2 22367.2 31601 32988.3 36323.2 
31645.3 27250 36031.2 30878.8 34014.3 32897.3 29602.4 36789.1 29328.1 
31776.4 32761.3 36151.3 31450.4 29828.1 32421.9 23301.7 41401.7 25939.4 
24250.2 40398.4 21593.8 4723.71 26359.9 27933.4 5039.06 26334.2 23140.6 
4893.97 26346 25345.3 4208.91 30601.6 22882.8 31115.5 29063.7 41098.2 
30636.8 24929.7 39382.8 29932.3 27002.6 44661.1 29060 22867.2 45828.1 
22795.1 41212.2 29650.6 26301.4 40656.2 27523.4 29874.4 35859.4 29894.8 
29083.7 35500 26492.2 23730.1 40741.5 22478.3 22364.1 40914.1 19531.2 
8535.1 39054.1 32743.2 6843.75 37945.1 29843.8 24094.2 40501.4 21859.1 
25423.8 37820.3 20304.7 4995.54 26337.8 23802 7359.38 23125 20357.3 
14704 41246.3 26863.8 11742.2 40714 24429.7 4723.09 25448.4 27433.6 
5242.22 20546.9 30617.2 24918.5 38839.1 20895.4 23876.9 38078.1 17984.4 
29321.7 24107.8 45478 28757.8 20997.5 42476.6 15769.1 41571.7 23111.6 
17929.7 42232 18500 31415.6 28969.7 35592 30114.9 25187.5 32164.1 
4722.68 24904.8 27135.5 6801.47 20804.7 24687.5 17108.7 41981.1 20252.4 
15093.8 41031.6 16953.1 29637.2 35751.6 28874 29606.5 31375 27007.8 
4469.19 28984.5 23818.5 5226.75 29312.5 19789.1 29249.7 35575.5 27206.7 
27478 38335.9 24945.3 30374.3 25406.1 39635.9 29015.6 20725.3 37835.9 
4476 30954.7 28836.4 4265.62 32742.4 25718.8 25272.2 38126 20481.9 
27468.8 35571.2 22625 29785.2 23340.2 38356.8 29563.2 22351.6 35000 
7543.97 38431.2 30389.3 7617.19 38645.3 26492.2 29062.3 22677.1 44097.4 
27468.8 18147.2 45570.3 5463.83 20784.8 30069.7 6478.69 17195.3 31390.6 
28683.9 21186.2 42899.5 27468.8 18146.1 41445.3 6177.77 22034.7 25421.9 
7359.38 18073.9 27523.4 30196.2 26253.4 32394.8 28918.7 24671.9 29070.3 
7074.95 23956.4 20774.7 9886.97 22867.2 16695.3 25378.3 37912 20357.8 
26179.7 33179.7 19502.4 6451.15 24670.8 21682.9 7101.56 26171.3 17726.6 
24011.3 38007.6 18409.4 22828.1 36106.4 15406.2 6817.66 26196 18614.3 
6328.12 29241.3 16437.5 15657.3 41554.6 22590.5 13289.1 40692.3 20304.7 
6388.14 28934.4 17052.5 5812.5 32921.9 16632.4 7338.96 38319.6 27603.5 
5812.5 36854 24687.5 7274.09 23374.4 20482.5 10453.1 20031.2 19874.7 
29629.8 22648.1 36007.1 27210.9 18971.1 34226.6 15449.8 41041.5 17142.6 
14062.5 39981.8 13859.4 28941.9 21081.5 37976.6 27004.7 18226.6 37835.9 
4469.5 32581.5 25922.3 4753.41 34210.9 22882.8 29448.3 22409.3 35116.6 
28500 21683.3 32164.1 6581.4 17527.7 31551.6 7617.19 14824.5 32937.5 
25787 34240.9 19412.6 24920.5 31632.8 17210.9 7086.82 26264.7 17853.3 
8192.62 26734.4 14890.6 6346.17 29149.3 16622 7309.88 30085.9 13859.4 
28777.1 24744.8 29325.9 26953.1 23125 26183.8 7860.87 26593.5 15779.5 
10453.1 24495.5 13859.4 27619.6 18912.1 45028.2 25473.3 14875 44539.1 
6971.42 30082.9 14754.1 7301.63 32406.2 13343.8 13874.3 40924 21432 
10195.3 39698.2 21335.9 26999.4 18490.5 37953.1 24772 15906.2 38093.8 
23147.6 36173.9 16025.1 22828.1 32921.9 14034.7 6974.93 16500.5 32078.2 
9867.37 14101.6 30101.6 27479.7 19820.3 34002.3 25406.2 17801.7 31390.6 
15200.6 41034.6 17010 11970.1 39367.2 17210.9 23324.4 41587.8 25541.8 
20765.6 42260.9 24171.9 7645.03 15076.4 32853.3 9421.88 12434 34484.4 
10578.5 39725.8 21511 7359.38 38395.8 21851.6 7327.92 30084.2 13918.1 
8865 30085.9 10507.8 7345.56 18839.9 26883.8 9539.44 15906.2 27007.8 
7453.12 32248.2 13580.2 9020.72 35757.8 12312.5 24762.1 31962.1 17265.8 
23364.4 29828.1 14890.6 28442.5 21727.6 32459.2 27210.9 21012 29843.8 
26028.3 18407.3 32174.1 24181.1 15906.2 33195.3 7629.97 14940.4 32898.8 
6652.97 14359.4 37062.5 25481.1 15122.1 44656.4 23661.4 12296.9 44539.1 
25416.1 16594.2 38369.4 23803.7 14359.4 40414.1 27667.7 24146.4 27072.8 
26455 25445.3 22882.8 25592.9 17983.4 31625.7 24117.2 18094.6 28296.9 
8325.14 38794.7 21749.4 6585.94 36581.8 19273.4 23594.5 30439.2 15207.1 
22312.5 30077.7 12570.3 12939.2 39867.4 17150.7 11742.2 38445.2 14890.6 
8763.94 13267.1 34382.7 9164.06 11778.2 37835.9 9014.53 35000.6 12546.5 
12000 37118 11539.1 27244.1 21110.8 30045.7 25921.9 20546.9 27576 
23433.4 30011.5 14985.6 21995.9 26734.4 13859.4 23577.2 12578.1 44648.8 
21281.2 10072.5 44796.9 9044.03 12224.8 36800 7101.56 12760.9 39640.6 
26957.9 25459.9 24204.9 27015 28796.9 21851.6 24190.8 17857.7 29015.2 
21796.9 16616.8 27007.8 11999.3 39420 17144.1 8648.44 37922.4 16953.1 
9238.62 37675.6 16856.6 7101.56 36015.6 16555.1 22296.5 29979.1 12692.2 
20790.4 29312.5 9992.19 26501.1 25597.1 23087.9 24952.5 26476.6 19531.2 
9112.39 11818.1 37787.5 9164.06 10691.2 40671.9 25145.4 26058.6 20195.7 
23343.8 25187.5 17418.2 22515 16989 27610 22054.7 18432.8 24429.7 
23151.8 17319.1 28144 20765.6 14815.2 29585.9 27284.4 24855.7 25524.1 
28500 28539.1 24822.6 21242.2 29512.5 10802.2 19734.4 26446.7 9992.19 
23361.8 25105.3 17815.9 21349.3 23898.4 15664.1 24971.5 26480 19545.3 
24385.3 28023.4 17210.9 21931.8 16845.2 27053.1 19734.4 16679.7 24793.7 
22351.9 18418.4 24869.9 22589.9 20031.2 22367.2 20879.5 15176.6 29557.6 
18445.3 13244.6 31132.8 20183.3 16852 25028 18703.1 17591.3 22109.4 
27140.7 27881.6 22891.8 28055.5 30601.6 23398.4 18755.6 13669.7 30599.2 
15967.2 12554.7 30359.4 26468.9 25490.9 22944.3 24632.8 22747.6 22109.4 
24885.1 23432.8 22046.1 22894.1 22351.6 20046.9 19087.2 17625 22536.5 
18591.8 19257.8 19531.2 18538.4 13372.2 30972.7 17671.9 12039.1 34084.2 
18070.5 12652.2 32653 15093.8 11711.1 33195.3 21561.2 15819.4 29133.5 
17671.9 14295.4 27523.4 17863.2 12217.6 33892 18042.1 11781.2 36289.1 
23133.7 22435 20442.3 20765.6 20862.4 19015.6 21195.5 21315 19112.1 
19269.3 21062.5 16953.1 15850.7 47204.6 53392.3 17671.9 45179.3 52531.2 
17396.7 45650.8 52547.1 19218.8 44641 50984.4 16212.7 45159.9 49248.3 
15867.2 44834.9 47375 19214.6 44652.7 50998.5 20765.6 43817 49695.3 
15930.3 44806.8 47628.2 15651.7 44007.8 45570.3 15873.4 44064.2 45795.6 
16125 43296.2 44023.4 20650.5 43802.2 49855.7 22570.3 42570.2 48406.2 
21495.6 42184.8 46005.1 22188.8 41429.7 44281.2 12435.2 42505.6 44430.9 
14062.5 42460.9 42683.8 21984.3 41412.8 44377.7 22312.5 40724.3 42992.2 
13888.5 42399.5 42734.7 14835.9 42203.1 41368 23410 40812.8 45613.8 
24375 40003.5 43765.6 8738.78 38194.9 41539.9 9164.06 39160.9 39640.6 
9013.19 38874.2 39900.8 8906.25 38976.3 37835.9 23081 39606.3 40649.2 
25148.4 38649.4 40929.7 21720.6 40299.4 39544.7 19556 40656.2 38351.6 
25937.1 38808.5 45210 25921.9 38653.6 42992.2 24528.2 38936.5 40845.5 
25457.8 38335.9 39382.8 27749.9 37060.3 43585.5 26953.1 37586.2 41703.1 
16247.3 41334.8 37220.6 16983 41171.9 35515.6 7736.81 37144.7 39978.1 
5812.5 34984.4 39699.4 7671.12 34203.8 44823.1 7815.19 32921.9 46601.6 
6037.52 33213.1 41163.7 5238.09 33179.7 39125 21607.6 40254.3 35359.6 
19734.4 40715 34226.6 6870.77 31831.5 45349.5 7617.19 30085.9 47942.2 
28674.2 36265.3 41290.3 27468.8 37103.6 39382.8 6551.7 31019.7 44168.7 
5750.62 30343.8 42218.8 29353.9 35573.4 40080.7 30597.6 33695.3 40414.1 
20095.8 40662.5 34279.8 18703.1 41228.6 32421.9 10364.1 39948.9 36613.4 
11742.2 40713 35000 5629.35 32232.3 40804.9 4881.28 30085.9 40156.2 
28813.3 36692.5 37435.1 27984.4 37503.7 36289.1 4837.04 28607.2 39929.5 
4523.44 29054.7 38674.3 16738.5 41240.9 30018.1 18703.1 41230.7 30359.4 
22725.7 40571.1 33282.2 24375 40398.4 32297.1 14820.8 41287.2 32607.3 
13804.7 41230.7 30617.2 5544.79 24579.7 44978.3 5294.81 23382.8 45054.7 
5365.97 33212 39199.9 4781.25 33257 37062.5 4564.79 29114.3 38787.6 
4214.06 30343.8 37062.5 30720.5 31256.3 41632.4 31652.5 30859.4 39898.4 
29009.7 36817.1 36386.3 29066.2 37820.3 33453.1 4930.89 33053.6 37459.1 
4722.47 31890.6 35773.4 18113.7 41233.8 30257 20250 41745.2 28039.1 
13851.5 41237.7 31082.3 12179.4 41171.9 30101.6 31344.6 30781.7 40397 
31783.5 29312.5 39125 29215.3 37215.8 34678.3 30304.7 36583.8 33195.3 
13132.6 41180.8 33377.9 11484.4 40713 32421.9 18754.6 41387.2 29591.6 
17929.7 41745.2 26750 12389.2 41097.8 30366.4 10453.1 40516 30101.6 
4377.72 27508.2 38524.9 4207.87 26476.6 36546.9 29190.7 37608.7 33629.3 
29582.8 37820.3 31648.4 18482.4 41631.3 27226.2 18960.9 41747.3 25203.1 
[...]
CELL_DATA 1299
SCALARS radius float
LOOKUP_TABLE default
0.0573241 1.14448 0.0649471 0.795042 0.0728818 0.996388 0.0639832 0.794136 0.0496058 
0.832667 0.0757299 0.74371 0.0779539 0.792383 0.0661287 0.564611 0.0614748 0.761975 
0.0550576 0.829172 0.0673404 0.609813 0.0521847 0.426836 0.0697279 0.82823 0.0672914 
0.422244 0.0509721 0.562314 0.0859389 0.709598 0.0660271 0.379174 0.0516481 0.826111 
0.0673102 0.642732 0.0759117 0.59751 0.105792 0.586602 0.0473162 0.555841 0.0738415 
0.371514 0.0513984 0.365495 0.101574 0.639356 0.0554168 0.546724 0.0610993 0.367734 
0.0604593 0.28643 0.14084 0.262681 0.113444 0.706193 0.0730714 0.698404 0.0907176 
0.186772 0.152605 0.664951 0.0803609 0.431407 0.0929481 0.575515 0.0765008 0.60487 
0.109426 0.522957 0.0941669 0.68099 0.0687627 0.509035 0.0692627 0.534241 0.0790555 
0.406377 0.0592701 0.162927 0.133941 0.569577 0.0737317 0.677133 0.0620467 0.528157 
0.127799 0.591531 0.0794581 0.420237 0.0818563 0.16273 0.111844 0.403714 0.0672075 
0.562608 0.069238 0.351245 0.108044 0.54054 0.0451287 0.50159 0.0824689 0.231283 
0.102555 0.544423 0.0911904 0.540082 0.068738 0.408926 0.0939329 0.484671 0.105454 
0.527703 0.0986206 0.372983 0.0580646 0.412888 0.0679024 0.394908 0.102209 0.233056 
0.114498 0.327072 0.111529 0.589417 0.0788563 0.288758 0.0837062 0.490272 0.110913 
0.587948 0.0630736 0.313568 0.0671657 0.395281 0.110704 0.474241 0.0674603 0.217599 
0.143997 0.342313 0.0893508 0.504558 0.0751161 0.29863 0.128521 0.471315 0.0945053 
0.494881 0.0532318 0.341112 0.111724 0.455597 0.0803893 0.347231 0.076583 0.38597 
0.138651 0.302356 0.16645 0.220742 0.164958 0.565187 0.0721121 0.399131 0.14488 
0.279055 0.0658148 0.258424 0.136593 0.270321 0.0809753 0.471768 0.0693208 0.466199 
0.0710559 0.328961 0.0603609 0.343106 0.0695017 0.499551 0.0786921 0.311553 0.172348 
0.349182 0.0937914 0.341629 0.10539 0.328236 0.0783368 0.260327 0.133215 0.311912 
0.10197 0.464045 0.13987 0.541439 0.0801621 0.364715 0.0705551 0.136957 0.128487 
0.436371 0.0792654 0.292032 0.13572 0.197094 0.19417 0.228166 0.181533 0.318191 
0.158371 0.45709 0.0852909 0.269171 0.0882883 0.535501 0.134588 0.250585 0.12931 
0.31271 0.114485 0.231481 0.182902 0.498984 0.0607018 0.529697 0.101562 0.279104 
0.126141 0.452606 0.0668733 0.363929 0.153766 0.406879 0.0581577 0.298908 0.234549 
0.217059 0.132638 0.375295 0.0662748 0.299613 0.17018 0.357003 0.117306 0.472091 
0.126211 0.524758 0.0659511 0.342489 0.105264 0.306691 0.194957 0.332568 0.153861 
0.428165 0.0535144 0.3194 0.139413 0.336674 0.0926527 0.426642 0.0917038 0.523487 
0.0951266 0.487196 0.120822 0.307022 0.209277 0.299596 0.20439 0.224208 0.147959 
0.343645 0.0751525 0.333454 0.0999319 0.3531 0.0941847 0.336547 0.0913447 0.29068 
0.151989 0.350783 0.172308 0.342938 0.116973 0.323959 0.0952906 0.325082 0.100269 
0.319472 0.132615 0.300526 0.201926 0.403709 0.117319 0.23469 0.219629 0.318793 
0.132159 0.279062 0.225026 1.14795 0.0693255 0.235818 0.0247853 0.99885 0.0592439 
0.223327 0.0518921 0.190295 0.055543 0.168634 0.114106 0.216975 0.0792281 0.832247 
0.0626676 0.793931 0.050099 0.156708 0.0800001 0.142964 0.111977 0.829606 0.0964344 
0.713769 0.060664 0.161881 0.113185 0.223105 0.0487866 0.599691 0.0916676 0.828961 
0.0978794 0.212616 0.0745701 0.827373 0.0919894 0.141282 0.0847204 0.710983 0.107712 
0.392649 0.0874422 0.239897 0.0720235 0.181963 0.0765529 0.162594 0.0875421 0.644517 
0.0908345 0.368934 0.111635 0.160856 0.0919005 0.180521 0.105263 0.163361 0.0670624 
0.17088 0.138458 0.333687 0.0667336 0.280916 0.074625 0.273236 0.0865389 0.579872 
0.0797359 0.553091 0.0822297 0.256883 0.121683 0.188646 0.116336 0.237174 0.136764 
0.597885 0.0823254 0.287718 0.0748038 0.185079 0.168279 0.266472 0.0650131 0.179418 
0.0924044 0.188918 0.0712097 0.285946 0.0710211 0.136387 0.123906 0.263394 0.0974764 
0.155694 0.143986 0.206665 0.158686 0.26477 0.0963865 0.214306 0.143827 0.345879 
0.134901 0.167877 0.113849 0.262764 0.070822 0.571145 0.115241 0.215881 0.122299 
0.219417 0.0874805 0.530272 0.121111 0.166638 0.155943 0.249999 0.142807 0.519768 
0.0612856 0.324744 0.104561 0.190714 0.143484 0.491277 0.0850927 0.415991 0.116935 
0.196221 0.112403 0.228753 0.131092 0.364023 0.103445 0.288681 0.11563 0.176791 
0.0851196 0.167629 0.153309 0.265916 0.0962399 0.418716 0.115396 0.367577 0.068152 
0.285558 0.0576684 0.219469 0.161152 0.223413 0.0892058 0.170737 0.163371 0.25767 
0.143781 0.223174 0.106675 0.237177 0.112713 0.290438 0.075897 0.404711 0.139313 
0.503299 0.0875474 0.253264 0.0876563 0.215037 0.158377 0.276941 0.0875643 0.240543 
0.140384 0.201229 0.106469 0.202099 0.162062 0.242267 0.161113 0.153232 0.143037 
0.137398 0.131748 0.25841 0.122522 0.174982 0.110043 0.284508 0.127797 0.241789 
0.109821 0.317281 0.104311 0.199316 0.144287 0.208652 0.190937 0.467851 0.135341 
0.255463 0.0893171 0.227722 0.1439 0.247348 0.139754 0.292875 0.146075 0.565564 
0.0889359 0.280224 0.122237 0.24172 0.1413 0.34631 0.100313 0.204872 0.107838 
0.271048 0.153315 0.279287 0.0982558 0.22903 0.165775 0.526637 0.115913 0.345433 
0.143583 0.222427 0.140297 0.379389 0.146376 0.233623 0.167519 0.149315 0.141642 
0.281256 0.139838 0.277794 0.154455 0.212077 0.193143 0.293934 0.190202 0.182482 
0.15961 0.239865 0.136251 0.37382 0.07535 0.460915 0.134214 0.313929 0.0834346 
0.245848 0.229891 0.277201 0.186176 0.312941 0.175359 0.341488 0.152316 0.29356 
0.176417 0.218459 0.164635 0.320095 0.0860233 0.239528 0.183489 0.264404 0.128838 
0.219374 0.17589 0.267096 0.154078 0.246475 0.176366 0.234132 0.194419 0.279235 
0.128525 0.284599 0.213055 0.264651 0.235997 0.233804 0.0650606 0.794942 0.0635319 
0.115578 0.11198 0.149028 0.0893223 0.205442 0.1199 0.176194 0.0747304 0.190811 
0.138076 0.114926 0.111661 0.379092 0.0789286 0.134149 0.123903 0.714423 0.100011 
0.613354 0.0565496 0.158394 0.0645193 0.563613 0.0899343 0.135418 0.0977193 0.134957 
0.101728 0.24522 0.0979403 0.132856 0.116341 0.11201 0.107388 0.198086 0.109698 
0.137291 0.125564 0.384668 0.0695666 0.133961 0.127391 0.707967 0.0728447 0.121986 
0.112628 0.216092 0.0820287 0.136152 0.128246 0.158202 0.148709 0.23715 0.0555398 
0.132675 0.130118 0.607497 0.051065 0.559325 0.0964915 0.289542 0.128168 0.142547 
0.112715 0.14222 0.128068 0.213949 0.0897623 0.211762 0.0767917 0.203528 0.131263 
0.12506 0.12016 0.426969 0.0955226 0.206585 0.128122 0.234685 0.147202 0.706758 
0.0945398 0.183556 0.117955 0.183405 0.106342 0.247439 0.139911 0.165625 0.121561 
0.408159 0.0960889 0.160762 0.120549 0.168912 0.126543 0.192481 0.0980469 0.177519 
0.115405 0.26444 0.0707414 0.167224 0.155135 0.16313 0.142035 0.182863 0.115615 
0.183406 0.119975 0.3976 0.103031 0.161386 0.141018 0.372202 0.0782445 0.276474 
0.0758663 0.522897 0.0813268 0.588935 0.10085 0.158159 0.0908805 0.136123 0.126313 
0.149046 0.121064 0.149259 0.141717 0.272094 0.110282 0.183736 0.120744 0.229558 
0.121505 0.566199 0.0990432 0.476507 0.115382 0.221174 0.134287 0.180688 0.160555 
0.252243 0.122705 0.169471 0.095834 0.178984 0.105579 0.216837 0.131634 0.165615 
0.154142 0.21859 0.1492 0.543773 0.0978367 0.319674 0.132425 0.191749 0.177773 
0.22698 0.137685 0.468961 0.121899 0.197679 0.167968 0.173325 0.15706 0.16823 
0.159416 0.188627 0.154772 0.202003 0.173266 0.132408 0.124855 0.209258 0.142405 
0.141309 0.128428 0.135889 0.130534 0.204 0.177599 0.160052 0.14305 0.307059 
0.113758 0.243589 0.158573 0.16439 0.150856 0.266706 0.119717 0.538786 0.0759999 
0.212259 0.188913 0.188543 0.173584 0.141674 0.133973 0.314289 0.163097 0.215726 
0.157685 0.232796 0.149648 0.210124 0.167764 0.271253 0.165495 0.309872 0.141921 
0.20702 0.183093 0.20282 0.193837 0.529084 0.126948 0.21994 0.144003 0.272661 
0.171107 0.267968 0.164651 0.235165 0.218808 0.159119 0.15508 0.319953 0.156228 
0.24047 0.171374 0.23463 0.224418 0.264546 0.238612 0.298965 0.12928 0.235678 
0.165731 0.162359 0.151955 0.22223 0.195232 0.135049 0.129588 0.223187 0.198981 
0.208423 0.190662 0.196305 0.190637 0.31672 0.166651 0.342302 0.126687 0.172115 
0.161769 0.189463 0.179702 0.217841 0.200244 0.237405 0.231286 0.117981 0.110979 
0.0973859 0.0968478 0.188361 0.0838258 0.100769 0.0915298 0.744033 0.0813101 0.117482 
0.106388 0.565251 0.0849211 0.153293 0.105911 0.762335 0.085621 0.564337 0.0884125 
0.142759 0.0627173 0.102105 0.0959612 0.219886 0.100666 0.173786 0.0855259 0.122513 
0.119878 0.119667 0.0977933 0.587201 0.0852078 0.557468 0.0876347 0.153502 0.0988867 
0.120815 0.113395 0.665915 0.0831764 0.580707 0.094461 0.157918 0.140471 0.15683 
0.0993531 0.17581 0.11437 0.577361 0.0998199 0.556745 0.094328 0.125195 0.118747 
0.576365 0.0945759 0.161647 0.117276 0.213532 0.154708 0.113561 0.110009 0.356657 
0.0883578 0.369277 0.0856705 0.175158 0.137157 0.409805 0.0938186 0.206244 0.0877074 
0.429032 0.10426 0.182261 0.106579 0.18064 0.16741 0.158172 0.14472 0.35484 
0.110369 0.677572 0.0845502 0.161115 0.133625 0.529141 0.106409 0.180015 0.128745 
0.140827 0.134528 0.198139 0.155814 0.169242 0.149039 0.161507 0.1259 0.566925 
0.109392 0.175806 0.153326 0.130397 0.12618 0.590234 0.0948554 0.179251 0.161523 
0.167734 0.100378 0.201044 0.0853539 0.478382 0.108643 0.138231 0.130151 0.156346 
0.116198 0.199432 0.120031 0.136643 0.126273 0.30021 0.0879448 0.190245 0.134728 
0.18004 0.164466 0.182298 0.153781 0.184611 0.0991934 0.214275 0.142133 0.15491 
0.14369 0.161072 0.143662 0.171338 0.119789 0.251329 0.102421 0.249931 0.1244 
0.247008 0.0856535 0.203147 0.161362 0.352849 0.110672 0.161108 0.145924 0.146065 
0.141168 0.141396 0.129184 0.158715 0.152706 0.261227 0.149963 0.236023 0.110224 
0.180657 0.173056 0.326556 0.129176 0.199284 0.150748 0.150462 0.136838 0.389232 
0.113708 0.25628 0.124949 0.150723 0.143821 0.191556 0.173132 0.165829 0.156699 
0.22138 0.190031 0.225521 0.216483 0.245971 0.142077 0.168007 0.153364 0.19241 
0.160616 0.248932 0.170258 0.248804 0.140704 0.146796 0.138948 0.140666 0.134343 
0.197066 0.167423 0.218908 0.2121 0.157303 0.150285 0.170303 0.135746 0.174023 
0.158952 0.30073 0.131855 0.210029 0.192224 0.200224 0.163756 0.208831 0.181418 
0.206914 0.1608 0.283287 0.214222 0.341591 0.145431 0.255024 0.226217 0.258307 
0.233746 0.172113 0.169871 0.301787 0.117008 0.232857 0.222561 0.188882 0.184798 
0.244194 0.200899 0.290505 0.181515 0.183018 0.177045 0.252678 0.219958 0.155564 
0.149483 0.205371 0.161339 0.224419 0.14079 0.219257 0.197892 0.230545 0.204847 
0.233425 0.168585 0.242246 0.181534 0.182803 0.159732 0.199393 0.184815 0.301107 
0.177241 0.239018 0.0814914 0.996542 0.0771558 0.794402 0.0796062 0.123585 0.109098 
0.146411 0.134365 0.832535 0.0843342 0.186145 0.156288 0.373105 0.0871338 0.0972812 
0.0927763 0.136452 0.0733488 0.116424 0.110652 0.127011 0.118269 0.129943 0.108037 
0.138223 0.133778 0.157789 0.148925 0.562849 0.0797754 0.828506 0.0827791 0.127975 
0.0945882 0.137263 0.0955564 0.221398 0.0913253 0.195328 0.0978527 0.143393 0.1256 
0.666485 0.0912081 0.293667 0.101715 0.13041 0.113661 0.137698 0.132178 0.152463 
0.114768 0.138178 0.127779 0.699061 0.0987254 0.665482 0.0890201 0.262014 0.101192 
0.126668 0.123003 0.174694 0.121134 0.120214 0.0943107 0.192902 0.15147 0.681547 
0.0918687 0.430861 0.100472 0.113906 0.102449 0.173466 0.113069 0.139562 0.131337 
0.175223 0.160948 0.138627 0.10668 0.229852 0.100926 0.188201 0.173315 0.492595 
0.0985233 0.203952 0.1791 0.180546 0.142768 0.264397 0.106985 0.42537 0.0865826 
0.158451 0.116762 0.258368 0.117501 0.223211 0.101962 0.154661 0.149561 0.140144 
0.128127 0.591036 0.0943177 0.20489 0.101515 0.150601 0.140843 0.133631 0.123687 
0.150598 0.131469 0.496293 0.10133 0.160091 0.145679 0.211866 0.114983 0.298503 
0.117246 0.187556 0.171876 0.292348 0.119365 0.19099 0.175666 0.14421 0.132361 
0.176147 0.144543 0.309232 0.124489 0.180267 0.142671 0.116004 0.113681 0.169679 
0.158659 0.185528 0.169676 0.239204 0.121837 0.182716 0.172399 0.175627 0.161858 
0.12727 0.104004 0.473114 0.0966001 0.181419 0.169887 0.2116 0.120499 0.190251 
0.171438 0.159613 0.150927 
