# vtk DataFile Version 4.1
vtk output
ASCII
DATASET POLYDATA
POINTS 28 float
100 9850 50 3250 9850 50 2811.98 10187.8 50 
3229.65 9883.26 50 5398.72 8761.19 50 6124.55 11112.8 50 
7734.79 7675.78 50 9206.62 12362.6 50 8750 14650 50 
9950 11850 50 10373 12613.9 50 11550 12950 50 
11650 7050 50 9850 4050 50 11505.9 12935 50 
12150 13050 50 11555.9 7233.78 50 12250 6550 50 
12550 12650 50 12750 6850 50 6124.55 11112.8 50 
7950 14950 50 5398.72 8761.19 50 9950 4450 50 
12391.8 6965.13 50 12450 6950 50 12089.2 13016.6 50 
12450 13050 50 
LINES 27 81
2 3 1 
2 0 2 
2 2 3 
2 3 4 
2 2 5 
2 4 6 
2 5 7 
2 20 8 
2 7 9 
2 7 10 
2 14 11 
2 16 12 
2 22 13 
2 10 14 
2 26 15 
2 6 16 
2 6 17 
2 10 18 
2 24 19 
2 5 20 
2 20 21 
2 4 22 
2 22 23 
2 16 24 
2 24 25 
2 14 26 
2 26 27 

CELL_DATA 27
SCALARS radius float
LOOKUP_TABLE default
92.9635 100 96.4176 92.9635 96.4176 89.6332 92.9635 89.6332 89.6332 
89.6332 83.3262 83.3262 86.4222 86.4222 80.3411 86.4222 86.4222 86.4222 
80.3411 92.9635 89.6332 89.6332 86.4222 83.3262 80.3411 83.3262 80.3411 

