# vtk DataFile Version 4.1
vtk output
ASCII
DATASET POLYDATA
POINTS 38 float
100 9850 50 3150 10650 50 2841.09 10390.5 50 
3825.72 10357.4 50 6527.94 7996.37 50 6928.28 7650.23 50 
8750 6950 50 8358.53 6968.75 50 8693.67 6916.06 50 
8989.39 12563.5 50 8550 5350 50 9550 5850 50 
10350 6550 50 9788.26 7508.59 50 10850 7150 50 
9353.77 5871.4 50 9850 5150 50 10350 13650 50 
10950 13050 50 10725.7 12786.4 50 9842.9 5183.14 50 
10957 7603.38 50 10937.6 12978.7 50 11550 13350 50 
11550 7950 50 12050 12650 50 10250 3950 50 
12150 6950 50 11473 13173.5 50 12150 13250 50 
3825.72 10357.4 50 7950 14950 50 9976.15 4550.62 50 
9950 4450 50 12103.3 7067.61 50 12450 6950 50 
12071.5 13175.6 50 12450 13050 50 
LINES 37 111
2 2 1 
2 0 2 
2 2 3 
2 3 4 
2 4 5 
2 8 6 
2 5 7 
2 7 8 
2 30 9 
2 5 10 
2 15 11 
2 8 12 
2 4 13 
2 13 14 
2 7 15 
2 20 16 
2 9 17 
2 22 18 
2 9 19 
2 15 20 
2 13 21 
2 19 22 
2 28 23 
2 21 24 
2 19 25 
2 32 26 
2 34 27 
2 22 28 
2 36 29 
2 3 30 
2 30 31 
2 20 32 
2 32 33 
2 21 34 
2 34 35 
2 28 36 
2 36 37 

CELL_DATA 37
SCALARS radius float
LOOKUP_TABLE default
96.4176 100 96.4176 92.9635 89.6332 80.3411 86.4222 83.3262 89.6332 
86.4222 80.3411 80.3411 89.6332 86.4222 83.3262 77.463 86.4222 80.3411 
86.4222 80.3411 86.4222 83.3262 77.463 83.3262 83.3262 74.6879 80.3411 
80.3411 74.6879 92.9635 89.6332 77.463 74.6879 83.3262 80.3411 77.463 
74.6879 
