# vtk DataFile Version 4.1
vtk output
ASCII
DATASET POLYDATA
POINTS 32 float
100 9850 50 3050 10550 50 2833.92 10257.7 50 
3569.8 10085.9 50 5245.21 9178.86 50 7536.86 7275.34 50 
9150 7250 50 8241.01 8097.4 50 9120.23 7366.93 50 
9750 5250 50 10850 12250 50 10610.5 12370.2 50 
9771.88 5315.65 50 10831 12287.7 50 11450 12150 50 
11950 12650 50 10650 4250 50 11684.7 12767 50 
12250 13150 50 10250 3550 50 12350 7450 50 
12250 6550 50 11919.9 12700.3 50 12550 12650 50 
3569.8 10085.9 50 7950 14950 50 10032.5 4817.51 50 
9950 4450 50 9120.23 7366.93 50 12450 6950 50 
12170.1 12996.9 50 12450 13050 50 
LINES 31 93
2 2 1 
2 0 2 
2 2 3 
2 3 4 
2 4 5 
2 8 6 
2 4 7 
2 7 8 
2 12 9 
2 13 10 
2 24 11 
2 5 12 
2 11 13 
2 13 14 
2 22 15 
2 26 16 
2 11 17 
2 30 18 
2 5 19 
2 7 20 
2 28 21 
2 17 22 
2 22 23 
2 3 24 
2 24 25 
2 12 26 
2 26 27 
2 8 28 
2 28 29 
2 17 30 
2 30 31 

CELL_DATA 31
SCALARS radius float
LOOKUP_TABLE default
96.4176 100 96.4176 92.9635 89.6332 83.3262 89.6332 86.4222 83.3262 
83.3262 89.6332 86.4222 86.4222 83.3262 80.3411 80.3411 86.4222 80.3411 
86.4222 86.4222 80.3411 83.3262 80.3411 92.9635 89.6332 83.3262 80.3411 
83.3262 80.3411 83.3262 80.3411 
