# vtk DataFile Version 4.1
vtk output
ASCII
DATASET POLYDATA
POINTS 26 float
100 9850 50 2850 10550 50 2658.8 10238.8 50 
3431.49 10076.3 50 6337.75 8555.54 50 7479.53 11889.5 50 
8767.61 7662.23 50 10055 12458.6 50 10950 7650 50 
10650 13650 50 9650 4350 50 11550 12150 50 
10913.7 7625.75 50 11750 6550 50 9638.55 4400.83 50 
9650 3650 50 12450 13050 50 12150 7850 50 
11725.7 6588.03 50 12350 6450 50 3431.49 10076.3 50 
7950 14950 50 6337.75 8555.54 50 9950 4450 50 
11995.7 6601.44 50 12450 6950 50 
LINES 25 75
2 2 1 
2 0 2 
2 2 3 
2 3 4 
2 20 5 
2 4 6 
2 5 7 
2 12 8 
2 5 9 
2 14 10 
2 7 11 
2 6 12 
2 18 13 
2 22 14 
2 14 15 
2 7 16 
2 12 17 
2 6 18 
2 24 19 
2 3 20 
2 20 21 
2 4 22 
2 22 23 
2 18 24 
2 24 25 

CELL_DATA 25
SCALARS radius float
LOOKUP_TABLE default
96.4176 100 96.4176 92.9635 89.6332 89.6332 86.4222 83.3262 86.4222 
83.3262 83.3262 86.4222 83.3262 86.4222 83.3262 83.3262 83.3262 86.4222 
80.3411 92.9635 89.6332 89.6332 86.4222 83.3262 80.3411 
