# vtk DataFile Version 4.1
vtk output
ASCII
DATASET POLYDATA
POINTS 24 float
100 9850 50 3250 9750 50 2614.9 10030.5 50 
3209.72 9764.17 50 5733.94 8480.08 50 7950 11850 50 
7088.23 7017.21 50 7901.85 11839.3 50 9637.13 12761 50 
10950 13150 50 11150 7450 50 10950 13750 50 
9650 4050 50 9635.17 4212.41 50 10250 3950 50 
10950 4350 50 2614.9 10030.5 50 7950 14950 50 
7088.23 7017.21 50 9950 4450 50 5733.94 8480.08 50 
12450 6950 50 2614.9 10030.5 50 12450 13050 50 

LINES 23 69
2 3 1 
2 0 2 
2 2 3 
2 3 4 
2 7 5 
2 4 6 
2 22 7 
2 7 8 
2 8 9 
2 20 10 
2 8 11 
2 13 12 
2 6 13 
2 13 14 
2 18 15 
2 2 16 
2 16 17 
2 6 18 
2 18 19 
2 4 20 
2 20 21 
2 16 22 
2 22 23 

CELL_DATA 23
SCALARS radius float
LOOKUP_TABLE default
92.9635 100 96.4176 92.9635 86.4222 89.6332 89.6332 86.4222 83.3262 
86.4222 83.3262 83.3262 86.4222 83.3262 83.3262 96.4176 92.9635 86.4222 
83.3262 89.6332 86.4222 92.9635 89.6332 
