# vtk DataFile Version 4.1
vtk output
ASCII
DATASET POLYDATA
POINTS 22 float
100 9850 50 3150 9350 50 2853.97 9610.54 50 
3803.91 9615.06 50 4541.24 9305.17 50 6805.82 7528.09 50 
9150 5150 50 10550 6550 50 11050 6950 50 
11572.7 12853.5 50 11950 13450 50 12350 12750 50 
11871.8 13179.5 50 12550 13350 50 100 9850 50 
7950 14950 50 6805.82 7528.09 50 9950 4450 50 
6805.82 7528.09 50 12450 6950 50 12104.4 12914.3 50 
12450 13050 50 
LINES 21 63
2 2 1 
2 14 2 
2 2 3 
2 3 4 
2 4 5 
2 16 6 
2 18 7 
2 4 8 
2 3 9 
2 12 10 
2 20 11 
2 9 12 
2 12 13 
2 0 14 
2 14 15 
2 5 16 
2 16 17 
2 5 18 
2 18 19 
2 9 20 
2 20 21 

CELL_DATA 21
SCALARS radius float
LOOKUP_TABLE default
92.9635 96.4176 92.9635 89.6332 86.4222 80.3411 80.3411 86.4222 89.6332 
83.3262 83.3262 86.4222 83.3262 100 96.4176 83.3262 80.3411 83.3262 
80.3411 86.4222 83.3262 
