# vtk DataFile Version 4.1
vtk output
ASCII
DATASET POLYDATA
POINTS 28 float
100 9850 50 3150 10650 50 2972.35 10435.5 50 
3800.73 9979.04 50 5360.32 10374.2 50 6920.37 8387.43 50 
7450 13350 50 8057.15 6947.61 50 7137.63 12877.1 50 
9150 6450 50 8542.74 7841.22 50 7950 15150 50 
11050 6750 50 10850 8050 50 11009.4 6807.86 50 
10750 4450 50 12050 12450 50 12350 6650 50 
12213.2 6765.76 50 12750 6950 50 7641.3 14286.3 50 
7950 14950 50 8057.15 6947.61 50 9950 4450 50 
12425.4 6881.83 50 12450 6950 50 5360.32 10374.2 50 
12450 13050 50 
LINES 27 81
2 2 1 
2 0 2 
2 2 3 
2 3 4 
2 3 5 
2 8 6 
2 5 7 
2 4 8 
2 7 9 
2 5 10 
2 20 11 
2 14 12 
2 10 13 
2 10 14 
2 22 15 
2 26 16 
2 18 17 
2 14 18 
2 24 19 
2 8 20 
2 20 21 
2 7 22 
2 22 23 
2 18 24 
2 24 25 
2 4 26 
2 26 27 

CELL_DATA 27
SCALARS radius float
LOOKUP_TABLE default
96.4176 100 96.4176 92.9635 92.9635 86.4222 89.6332 89.6332 86.4222 
89.6332 83.3262 83.3262 86.4222 86.4222 83.3262 86.4222 80.3411 83.3262 
77.463 86.4222 83.3262 86.4222 83.3262 80.3411 77.463 89.6332 86.4222 

