# vtk DataFile Version 4.1
vtk output
ASCII
DATASET POLYDATA
POINTS 36 float
100 9850 50 2850 9150 50 2687.76 9399.82 50 
4458.41 9794.61 50 6003.66 9109.6 50 6542.38 11888.2 50 
7550 13450 50 7350 6250 50 7434.57 6769.79 50 
7212.76 13185.5 50 7150 14250 50 8237.93 7978.9 50 
8242.29 6295.32 50 8928.21 7767.87 50 7376.13 13907.1 50 
9750 13650 50 9550 5450 50 10450 6650 50 
7650 15850 50 9386.21 5479.04 50 9250 4250 50 
10433.9 6709.45 50 9212.29 4290.17 50 9550 3750 50 
12150 6750 50 10450 3750 50 10850 4150 50 
12650 7050 50 7674.67 14753.1 50 7950 14950 50 
9940.43 4499.36 50 9950 4450 50 11915.6 6825.49 50 
12450 6950 50 6542.38 11888.2 50 12450 13050 50 

LINES 35 105
2 2 1 
2 0 2 
2 2 3 
2 3 4 
2 3 5 
2 9 6 
2 8 7 
2 4 8 
2 5 9 
2 14 10 
2 4 11 
2 8 12 
2 11 13 
2 9 14 
2 34 15 
2 19 16 
2 21 17 
2 28 18 
2 12 19 
2 22 20 
2 13 21 
2 12 22 
2 22 23 
2 32 24 
2 30 25 
2 11 26 
2 13 27 
2 14 28 
2 28 29 
2 19 30 
2 30 31 
2 21 32 
2 32 33 
2 5 34 
2 34 35 

CELL_DATA 35
SCALARS radius float
LOOKUP_TABLE default
96.4176 100 96.4176 92.9635 92.9635 86.4222 86.4222 89.6332 89.6332 
83.3262 89.6332 86.4222 86.4222 86.4222 86.4222 80.3411 80.3411 80.3411 
83.3262 80.3411 83.3262 83.3262 80.3411 77.463 77.463 86.4222 83.3262 
83.3262 80.3411 80.3411 77.463 80.3411 77.463 89.6332 86.4222 
