# vtk DataFile Version 4.1
vtk output
ASCII
DATASET POLYDATA
POINTS 24 float
100 9850 50 3250 9750 50 2868.5 9961.4 50 
3223.44 9759.81 50 5412.2 8840.86 50 7476.89 6795.08 50 
8056.1 8026.28 50 9950 7250 50 10226.8 7662.71 50 
8950 4750 50 11250 7650 50 10250 4950 50 
8968.5 4794.41 50 9650 3650 50 12550 6650 50 
12650 12350 50 100 9850 50 7950 14950 50 
9172.95 4451.09 50 9950 4450 50 11592.7 7139.08 50 
12450 6950 50 2868.5 9961.4 50 12450 13050 50 

LINES 23 69
2 3 1 
2 16 2 
2 2 3 
2 3 4 
2 4 5 
2 4 6 
2 6 7 
2 6 8 
2 12 9 
2 8 10 
2 5 11 
2 5 12 
2 18 13 
2 20 14 
2 22 15 
2 0 16 
2 16 17 
2 12 18 
2 18 19 
2 8 20 
2 20 21 
2 2 22 
2 22 23 

CELL_DATA 23
SCALARS radius float
LOOKUP_TABLE default
89.6332 96.4176 92.9635 89.6332 86.4222 86.4222 83.3262 83.3262 80.3411 
80.3411 83.3262 83.3262 77.463 77.463 89.6332 100 96.4176 80.3411 
77.463 80.3411 77.463 92.9635 89.6332 
