# vtk DataFile Version 4.1
vtk output
ASCII
DATASET POLYDATA
POINTS 38 float
100 9850 50 3250 9850 50 2627.54 10125.7 50 
4806.31 10624.4 50 5260.22 10179.9 50 5808.76 11298.9 50 
8077.25 8044.47 50 7550 14650 50 7642.18 14322.5 50 
9377.39 12935.5 50 10350 7450 50 9464.86 7848.54 50 
8350 15750 50 9350 4750 50 10270.8 7423.08 50 
9365.87 4988.72 50 9950 4550 50 11350 7550 50 
11550 12750 50 10762.3 7031.23 50 11450 13450 50 
9372.09 4773.75 50 9450 4050 50 10550 5150 50 
11302.1 7653.76 50 11950 7550 50 11379.5 12906.4 50 
12050 13150 50 11850 6350 50 12250 6950 50 
7941.97 14930.9 50 7950 14950 50 9862.38 4545.81 50 
9950 4450 50 12166.8 6962.18 50 12450 6950 50 
12001.1 13063.5 50 12450 13050 50 
LINES 37 111
2 2 1 
2 0 2 
2 2 3 
2 3 4 
2 3 5 
2 4 6 
2 8 7 
2 5 8 
2 5 9 
2 14 10 
2 6 11 
2 30 12 
2 21 13 
2 11 14 
2 4 15 
2 32 16 
2 24 17 
2 26 18 
2 14 19 
2 9 20 
2 15 21 
2 21 22 
2 6 23 
2 11 24 
2 24 25 
2 9 26 
2 36 27 
2 19 28 
2 34 29 
2 8 30 
2 30 31 
2 15 32 
2 32 33 
2 19 34 
2 34 35 
2 26 36 
2 36 37 

CELL_DATA 37
SCALARS radius float
LOOKUP_TABLE default
96.4176 100 96.4176 92.9635 92.9635 89.6332 86.4222 89.6332 89.6332 
80.3411 86.4222 83.3262 83.3262 83.3262 89.6332 83.3262 80.3411 83.3262 
80.3411 86.4222 86.4222 83.3262 86.4222 83.3262 80.3411 86.4222 80.3411 
77.463 74.6879 86.4222 83.3262 86.4222 83.3262 77.463 74.6879 83.3262 
80.3411 
