<VTKFile type="PolyData" version="1.0" byte_order="LittleEndian" header_type="UInt64">
  <PolyData>
    <Piece NumberOfPoints="1933" NumberOfLines="3864">
      <PointData Scalars="Scalars_">
        <DataArray type="Float32" Name="Scalars_" format="ascii">
     6.320000      6.320000      6.320000      6.320000      6.320000      6.320000      2.020000      2.020000      2.080000      2.120000      2.160000      2.200000      2.260000      2.300000      2.340000      2.400000      2.440000      2.480000      2.540000      2.600000      2.640000      2.700000      2.760000      2.840000      2.900000      2.960000      3.020000      3.340000      3.440000      3.540000      3.620000      3.660000      3.720000      3.780000      3.840000      3.900000      3.960000      4.020000      4.060000      4.140000      4.280000      4.380000      4.460000      4.500000      4.560000      4.600000      4.660000      4.700000      4.760000      4.800000      4.860000      4.900000      4.940000      5.000000      5.040000      5.100000      5.140000      5.200000      5.240000      5.300000      5.340000      5.400000      5.460000      5.500000      5.560000      5.620000      5.700000      5.740000      5.800000      5.900000      6.040000      6.120000      6.180000      6.220000      6.280000      6.320000      6.380000      6.440000      6.480000      6.560000      6.620000      6.700000      6.760000      6.820000      6.860000      6.900000      6.940000      7.000000      7.040000      7.080000      7.140000      7.180000      7.240000      7.300000      7.340000      7.400000      7.460000      7.520000      7.600000      7.640000      7.700000      7.980000      8.040000      8.080000      8.120000      8.160000      8.280000      8.360000      8.420000      8.480000      8.559999      8.620000      8.679999      8.720000      8.780000      8.860000      8.900000      8.920000      8.679999      8.740000      8.840000      8.920000      8.980000      9.020000      9.080000      9.139999      9.160000      9.179999      9.179999      9.240000      9.300000      9.340000      9.380000      9.420000      9.460000      9.500000      9.540000      9.580000      9.599999      9.620000      8.260000      8.340000      8.400000      8.460000      8.520000      8.580000      8.639999      8.679999      8.740000      8.780000      8.840000      8.880000      8.940000      8.980000      9.040000      9.099999      9.179999      9.220000      9.280000      9.380000      9.500000      9.580000      9.639999      9.679999      9.740000      9.780000      9.840000      9.880000      9.940000      10.000000      10.080000      10.120000      10.200000      10.300000      10.360000      10.400000      10.440000      10.480000      10.520000      10.559999      10.599999      10.639999      10.660000      10.679999      10.120000      10.160000      10.219999      10.280000      10.300000      9.220000      9.280000      9.380000      9.500000      9.559999      9.620000      9.660000      9.700000      9.740000      9.780000      9.820000      9.840000      9.860000      7.640000      7.680000      7.740000      7.920000      8.059999      8.139999      8.200000      8.260000      8.320000      8.380000      8.420000      8.480000      8.540000      8.599999      8.660000      8.720000      8.780000      8.860000      9.000000      9.059999      9.120000      9.179999      9.220000      9.280000      9.320000      9.360000      9.420000      9.460000      9.520000      9.559999      9.620000      9.660000      9.700000      9.760000      9.800000      9.860000      9.900000      9.940000      10.000000      10.040000      10.080000      10.139999      10.179999      10.219999      10.260000      10.300000      10.320000      10.340000      8.720000      8.780000      8.860000      9.000000      9.059999      9.120000      9.179999      9.220000      9.260000      9.320000      9.360000      9.400000      9.440000      9.500000      9.540000      9.580000      9.620000      9.660000      9.679999      9.700000      6.600000      6.620000      6.640000      5.740000      5.800000      5.900000      6.040000      6.120000      6.180000      6.240000      6.300000      6.360000      6.420000      6.460000      6.520000      6.580000      6.600000      6.420000      6.480000      6.560000      6.640000      6.680000      6.720000      6.740000      6.780000      6.800000      6.820000      4.020000      4.060000      4.200000      4.380000      4.480000      4.540000      4.580000      4.680000      4.780000      4.860000      4.920000      4.980000      5.020000      5.080000      5.120000      5.160000      5.220000      5.260000      5.320000      5.360000      5.420000      5.460000      5.520000      5.580000      5.620000      5.680000      5.760000      5.800000      5.860000      5.900000      5.960000      6.000000      5.820000      5.900000      6.060000      6.120000      6.180000      6.220000      6.280000      6.360000      6.500000      6.580000      6.640000      6.720000      6.800000      6.840000      6.860000      6.900000      6.920000      6.880000      6.960000      7.100000      7.200000      7.240000      7.300000      7.320000      7.180000      7.240000      7.320000      7.420000      7.480000      7.560000      7.600000      7.640000      7.700000      7.780000      7.840000      7.880000      7.880000      7.600000      7.660000      7.760000      7.840000      7.900000      7.960000      8.000000      8.059999      8.099999      8.160000      8.240000      8.280000      8.340000      8.440000      8.580000      8.660000      8.720000      8.780000      8.840000      8.920000      9.020000      9.080000      9.120000      9.220000      9.340000      9.400000      9.480000      9.540000      9.580000      9.679999      9.780000      9.860000      9.900000      9.960000      10.000000      10.059999      10.099999      10.139999      10.200000      10.240000      10.300000      10.340000      10.400000      10.440000      10.500000      10.559999      10.620000      10.679999      10.740000      10.800000      10.860000      10.940000      11.080000      11.160000      11.219999      11.259999      11.320000      11.360000      11.420000      11.480000      11.540000      11.599999      11.660000      11.719999      11.759999      11.900000      12.080000      12.179999      12.240000      12.340000      12.500000      12.559999      12.599999      12.660000      12.719999      12.780000      12.820000      12.860000      12.880000      12.900000      12.559999      12.620000      12.679999      12.759999      12.820000      12.860000      12.900000      12.960000      13.000000      13.059999      13.099999      13.139999      13.200000      13.240000      13.299999      13.340000      13.400000      13.460000      13.500000      13.580000      13.639999      13.700000      13.740000      13.840000      13.980000      14.059999      14.120000      14.179999      14.219999      14.280000      14.320000      14.380000      14.420000      14.480000      14.520000      14.580000      14.639999      14.700000      14.759999      14.820000      14.880000      14.920000      15.020000      15.160000      15.240000      15.299999      15.360000      15.400000      15.460000      15.520000      15.580000      15.620000      15.620000      15.639999      15.719999      15.780000      15.820000      15.860000      15.900000      15.940000      16.000000      16.039999      16.100000      16.139999      16.199999      16.240000      16.299999      16.379999      16.420000      16.459999      16.500000      16.539999      16.420000      16.480000      16.539999      16.600000      16.619999      16.639999      14.880000      14.920000      15.020000      15.200000      15.280000      15.339999      15.400000      15.480000      15.520000      15.580000      15.679999      15.880000      15.980000      16.039999      16.100000      16.160000      16.219999      16.279999      16.320000      16.320000      16.059999      16.119999      16.219999      16.299999      16.359999      16.400000      16.459999      16.520000      16.559999      16.600000      16.639999      16.680000      16.580000      16.639999      16.740000      16.799999      16.840000      16.879999      16.940001      17.000000      17.039999      17.119999      17.180000      17.219999      17.260000      17.299999      17.340000      17.400000      17.440001      17.500000      17.539999      17.580000      17.639999      17.680000      17.719999      17.779999      17.820000      17.859999      17.900000      17.940001      17.980000      18.000000      18.020000      17.020000      17.039999      15.520000      15.580000      15.679999      15.860000      15.900000      15.920000      15.960000      16.039999      16.100000      16.139999      16.180000      16.240000      16.299999      16.340000      16.359999      16.379999      16.340000      16.420000      16.480000      16.520000      16.559999      16.600000      16.639999      16.680000      16.699999      16.699999      13.700000      13.759999      13.860000      14.020000      14.099999      14.139999      14.179999      14.200000      14.179999      14.240000      14.320000      14.360000      14.400000      14.440000      14.480000      14.520000      14.580000      14.620000      14.660000      14.719999      14.759999      14.820000      14.860000      14.900000      14.940000      15.000000      15.040000      15.080000      15.099999      15.139999      15.139999      12.219999      12.280000      12.320000      12.400000      12.460000      12.480000      11.719999      11.759999      11.840000      12.000000      12.099999      12.160000      12.219999      12.259999      12.320000      12.360000      12.420000      12.460000      12.500000      12.559999      12.599999      12.660000      12.700000      12.759999      12.799999      12.860000      12.900000      12.960000      13.000000      13.040000      13.099999      13.160000      13.200000      13.259999      13.299999      13.360000      13.420000      13.500000      13.540000      13.580000      13.620000      13.660000      13.540000      13.620000      13.719999      13.780000      13.820000      13.860000      13.900000      13.940000      14.000000      14.040000      14.080000      14.139999      14.179999      14.240000      14.280000      14.320000      14.380000      14.420000      14.460000      14.500000      14.540000      14.580000      14.599999      14.620000      10.800000      10.860000      10.940000      11.080000      11.139999      11.200000      11.259999      11.300000      11.360000      11.400000      11.460000      11.500000      11.540000      11.599999      11.639999      11.700000      11.740000      11.800000      11.840000      11.900000      11.940000      12.000000      12.040000      12.099999      12.139999      12.200000      12.259999      12.320000      12.400000      12.440000      12.500000      12.559999      12.639999      12.700000      12.719999      12.740000      12.440000      12.500000      12.599999      12.679999      12.719999      12.780000      12.799999      12.840000      12.860000      12.880000      9.540000      9.580000      9.679999      9.780000      9.860000      9.900000      9.960000      10.000000      10.059999      10.099999      10.160000      10.200000      10.260000      10.300000      10.360000      10.420000      10.460000      10.540000      10.599999      10.660000      10.700000      10.920000      11.099999      11.160000      11.240000      11.360000      11.500000      11.559999      11.620000      11.679999      11.740000      11.780000      11.860000      11.940000      12.000000      12.040000      12.080000      12.120000      12.139999      12.179999      12.179999      11.719999      11.780000      11.840000      11.920000      11.960000      12.000000      12.000000      11.179999      11.219999      11.240000      11.259999      11.400000      11.500000      11.559999      11.599999      11.660000      11.719999      11.759999      11.840000      11.880000      11.920000      11.960000      11.980000      12.000000      11.700000      11.740000      11.780000      11.820000      10.639999      10.700000      10.760000      10.940000      11.059999      11.120000      11.179999      11.240000      11.280000      11.340000      11.380000      11.440000      11.480000      11.540000      11.580000      11.620000      11.679999      11.719999      11.780000      11.820000      11.880000      11.920000      11.980000      12.020000      12.059999      12.120000      12.160000      12.200000      12.259999      12.300000      12.340000      12.380000      12.420000      12.440000      12.460000      9.059999      9.120000      9.160000      9.260000      9.320000      9.380000      9.400000      9.440000      9.440000      8.860000      8.280000      8.340000      8.420000      8.559999      8.639999      8.700000      8.740000      8.800000      8.840000      8.900000      8.940000      8.980000      9.040000      9.099999      9.139999      9.200000      9.260000      9.300000      9.340000      9.380000      9.420000      9.460000      9.500000      9.520000      9.540000      9.160000      7.240000      7.300000      7.380000      7.460000      7.500000      7.560000      7.600000      7.660000      7.720000      7.780000      7.800000      7.820000      7.840000      7.900000      7.960000      7.980000      8.020000      8.059999      8.099999      8.139999      8.160000      8.179999      6.220000      6.260000      6.340000      6.460000      6.540000      6.600000      6.660000      6.700000      6.760000      6.800000      6.860000      6.900000      6.940000      7.000000      7.040000      7.100000      7.140000      7.180000      7.240000      7.280000      7.320000      7.380000      7.420000      7.460000      7.500000      7.540000      7.560000      7.580000      4.540000      4.600000      4.700000      4.840000      4.900000      4.980000      5.040000      5.080000      5.120000      5.160000      5.200000      5.260000      5.300000      5.360000      5.400000      5.460000      5.520000      5.580000      5.640000      5.700000      5.760000      5.820000      5.900000      5.980000      6.440000      6.560000      6.620000      6.660000      6.680000      6.680000      5.980000      6.400000      6.520000      6.600000      6.640000      6.640000      5.800000      5.840000      5.880000      6.520000      6.620000      6.700000      6.740000      6.800000      6.860000      6.920000      6.960000      7.000000      7.040000      7.080000      7.120000      7.160000      7.200000      7.240000      7.280000      7.340000      7.360000      7.400000      7.440000      7.440000      6.720000      6.760000      6.780000      5.740000      5.780000      5.800000      5.840000      6.520000      6.640000      6.700000      6.780000      6.920000      7.020000      7.080000      7.120000      7.200000      7.280000      7.360000      7.400000      7.440000      7.480000      7.520000      7.560000      7.600000      7.620000      7.640000      7.080000      7.140000      7.220000      7.320000      7.400000      7.460000      7.500000      7.560000      7.640000      7.680000      7.740000      7.780000      7.940000      8.099999      8.179999      8.240000      8.300000      8.340000      8.400000      8.440000      8.500000      8.540000      8.580000      8.639999      8.679999      8.740000      8.780000      8.840000      8.880000      8.920000      8.980000      9.020000      9.080000      9.120000      9.160000      9.220000      9.260000      9.300000      9.340000      9.380000      9.420000      9.440000      9.460000      7.700000      7.780000      7.840000      8.120000      8.220000      8.320000      8.380000      8.440000      8.500000      8.540000      8.599999      8.660000      8.740000      8.780000      8.840000      8.920000      9.059999      9.139999      9.220000      9.260000      9.320000      9.360000      9.420000      9.460000      9.500000      9.559999      9.599999      9.660000      9.719999      9.760000      9.820000      9.900000      9.960000      10.020000      10.139999      10.240000      10.300000      10.320000      10.340000      10.400000      10.460000      10.500000      10.540000      10.580000      10.620000      10.679999      10.719999      10.760000      10.820000      10.860000      10.900000      10.940000      10.980000      11.020000      11.059999      11.080000      11.099999      9.940000      10.000000      10.080000      10.160000      10.219999      10.260000      10.260000      8.780000      8.860000      8.980000      9.040000      9.080000      9.120000      9.200000      9.260000      9.300000      9.360000      9.400000      9.440000      9.500000      9.559999      9.639999      9.700000      9.820000      10.000000      10.080000      10.139999      10.219999      10.280000      10.320000      10.380000      10.420000      10.480000      10.520000      10.580000      10.620000      10.679999      10.719999      10.780000      10.820000      10.880000      10.940000      11.020000      11.059999      11.120000      11.200000      11.380000      11.480000      11.540000      11.620000      11.660000      11.740000      11.800000      11.860000      11.900000      12.000000      12.120000      12.200000      12.259999      12.320000      12.380000      12.420000      12.480000      12.540000      12.599999      12.660000      12.700000      12.759999      12.840000      12.880000      12.900000      12.660000      12.719999      12.840000      12.920000      12.960000      13.020000      13.059999      13.099999      13.139999      13.200000      13.240000      13.280000      13.340000      13.380000      13.440000      13.480000      13.540000      13.580000      13.639999      13.679999      13.740000      13.780000      13.840000      13.880000      13.940000      14.000000      14.080000      14.120000      14.179999      14.259999      14.340000      14.400000      14.420000      14.460000      14.460000      14.120000      14.179999      14.259999      14.340000      14.380000      14.400000      14.420000      11.860000      11.900000      12.000000      12.139999      12.219999      12.280000      12.340000      12.400000      12.480000      12.540000      12.639999      12.719999      12.840000      12.940000      13.020000      13.059999      13.059999      12.780000      12.940000      13.040000      13.099999      13.160000      13.200000      13.259999      13.320000      13.360000      13.400000      13.460000      13.520000      13.540000      13.380000      13.440000      13.559999      13.639999      13.679999      13.740000      13.780000      13.840000      13.940000      14.020000      14.080000      14.139999      14.179999      14.219999      14.259999      14.320000      14.360000      14.400000      14.440000      14.480000      14.500000      14.540000      14.559999      13.780000      13.840000      13.900000      13.980000      14.040000      14.080000      14.120000      14.120000      12.520000      12.580000      12.660000      12.780000      12.900000      12.960000      13.020000      13.059999      13.099999      13.120000      13.160000      13.160000      11.080000      11.139999      11.300000      11.380000      11.460000      11.500000      11.520000      11.420000      11.500000      11.559999      11.620000      11.639999      11.679999      11.700000      11.719999      10.000000      10.080000      10.139999      10.219999      10.280000      10.320000      10.380000      10.420000      10.480000      10.520000      10.580000      10.620000      10.679999      10.719999      10.780000      10.840000      10.900000      10.960000      11.040000      11.080000      11.099999      11.139999      11.179999      11.820000      11.900000      11.960000      12.040000      12.059999      12.080000      12.080000      12.139999      12.200000      12.240000      12.280000      12.300000      12.340000      12.380000      12.420000      12.460000      12.480000      12.500000      11.080000      11.120000      11.840000      11.940000      12.020000      12.139999      12.280000      12.340000      12.420000      12.540000      12.620000      12.660000      12.700000      12.759999      12.799999      12.840000      12.900000      12.940000      12.980000      13.040000      13.080000      13.139999      13.219999      13.240000      13.280000      13.299999      13.259999      13.340000      13.400000      13.440000      13.480000      13.520000      13.540000      13.559999      13.580000      12.340000      12.420000      12.559999      12.620000      12.679999      12.719999      12.780000      12.820000      12.900000      12.940000      13.000000      13.099999      13.200000      13.259999      13.320000      13.360000      13.420000      13.460000      13.500000      13.559999      13.599999      13.639999      13.700000      13.740000      13.799999      13.840000      13.900000      13.940000      14.000000      14.059999      14.099999      14.179999      14.240000      14.299999      14.360000      14.440000      14.580000      14.639999      14.700000      14.759999      14.799999      14.860000      14.900000      14.940000      15.000000      15.040000      15.099999      15.139999      15.200000      15.259999      15.299999      15.380000      15.400000      15.420000      15.440000      15.500000      15.559999      15.599999      15.639999      15.700000      15.740000      15.780000      15.839999      15.880000      15.940000      15.980000      16.039999      16.100000      16.180000      16.219999      16.260000      16.299999      16.340000      16.219999      16.279999      16.359999      16.400000      16.440001      16.459999      16.480000      14.299999      14.360000      14.440000      14.580000      14.639999      14.700000      14.759999      14.799999      14.860000      14.900000      14.940000      15.000000      15.040000      15.099999      15.139999      15.200000      15.240000      15.299999      15.339999      15.400000      15.440000      15.500000      15.559999      15.620000      15.700000      15.759999      15.799999      15.839999      15.900000      15.940000      15.980000      16.039999      16.080000      16.139999      16.199999      16.260000      16.320000      16.379999      16.420000      16.480000      16.539999      16.559999      16.379999      16.459999      16.539999      16.600000      16.660000      16.699999      16.719999      16.760000      16.799999      16.820000      16.840000      15.599999      15.620000      12.940000      13.000000      13.080000      13.160000      13.219999      13.280000      13.299999      13.340000      13.340000      12.300000      12.340000      12.360000      11.920000      11.980000      12.040000      12.120000      12.219999      12.280000      12.340000      12.380000      12.440000      12.480000      12.520000      12.580000      12.620000      12.660000      12.719999      12.759999      12.820000      12.860000      12.920000      12.960000      13.020000      13.059999      13.120000      13.160000      13.219999      13.259999      13.320000      13.380000      13.440000      13.520000      13.559999      13.620000      13.679999      13.840000      13.940000      14.000000      14.040000      14.080000      14.139999      14.179999      14.219999      14.259999      14.280000      14.320000      14.320000      13.559999      13.620000      13.740000      13.940000      14.020000      14.099999      14.179999      14.219999      14.280000      14.620000      14.719999      14.780000      14.839999      14.900000      14.980000      15.020000      15.059999      15.120000      15.200000      15.259999      15.280000      15.299999      15.020000      15.080000      15.179999      15.259999      15.299999      15.360000      15.400000      15.440000      15.480000      15.520000      15.559999      15.599999      15.639999      15.679999      15.700000      15.719999      14.219999      14.280000      14.599999      14.700000      14.780000      14.839999      14.880000      14.940000      14.980000      15.040000      15.099999      15.179999      15.219999      15.299999      15.440000      15.500000      15.559999      15.580000      15.559999      15.620000      15.679999      15.719999      15.759999      15.799999      15.820000      15.860000      15.860000      15.219999      15.280000      15.360000      15.500000      15.599999      15.660000      15.700000      15.759999      15.799999      15.860000      15.900000      15.960000      16.000000      16.059999      16.119999      16.199999      16.240000      16.299999      16.400000      16.500000      16.559999      16.619999      16.660000      16.719999      16.760000      16.799999      16.840000      16.900000      16.940001      16.980000      17.039999      17.080000      17.119999      17.160000      17.199999      17.240000      17.260000      17.279999      16.240000      16.299999      16.379999      16.459999      16.520000      16.559999      16.600000      16.600000      14.160000      14.200000      14.259999      14.400000      14.580000      14.660000      14.719999      14.780000      14.820000      14.860000      14.900000      14.940000      14.980000      15.000000      15.040000      15.040000      11.080000      11.099999      11.139999      11.200000      11.740000      11.860000      11.920000      11.980000      12.020000      12.059999      12.099999      12.139999      12.179999      12.219999      12.240000      12.259999      12.280000      9.679999      9.740000      9.780000      9.860000      9.940000      9.980000      7.840000      8.099999      8.220000      8.300000      8.360000      8.420000      8.480000      8.520000      8.559999      8.620000      8.660000      8.720000      8.780000      8.820000      8.880000      8.940000      8.980000      9.020000      9.040000      9.059999      9.080000      8.800000      8.820000      6.680000      6.740000      6.800000      6.880000      6.960000      7.020000      7.060000      7.080000      7.120000      7.120000      4.860000      4.880000      3.020000      3.320000      3.440000      3.520000      3.600000      3.660000      3.700000      3.760000      3.800000      3.840000      3.900000      3.940000      4.000000      4.060000      4.120000      4.160000      4.200000      4.220000      4.180000      4.260000      4.340000      4.380000      4.420000      4.460000      4.500000      4.560000      4.600000      4.640000      4.700000      4.740000      4.800000      4.840000      4.880000      4.940000      4.980000      5.020000      5.060000      5.100000      5.140000      5.160000      5.180000      2.880000      2.920000      2.980000      3.100000      3.320000      3.420000      3.480000      3.520000      3.580000      3.640000      3.680000      3.740000      3.780000      3.840000      3.900000      3.960000      4.020000      4.080000      4.140000      4.220000      4.320000      4.380000      4.440000      4.480000      4.500000      4.540000      4.540000      4.080000      4.140000      4.240000      4.360000      4.420000      4.480000      4.520000      4.580000      4.620000      4.680000      4.720000      4.780000      4.840000      4.920000      4.960000      5.020000      5.100000      5.180000      5.240000      5.280000      5.320000      5.320000      4.960000      5.020000      5.140000      5.240000      5.300000      5.340000      5.400000      5.440000      5.500000      5.560000      5.620000      5.680000      5.740000      5.780000      5.860000      5.940000      6.020000      6.060000      6.080000      6.100000      5.740000      5.800000      5.900000      6.000000      6.060000      6.100000      6.160000      6.200000      6.240000      6.300000      6.340000      6.380000      6.440000      6.480000      6.540000      6.580000      6.640000      6.680000      6.720000      6.780000      6.820000      6.880000      6.920000      6.980000      7.020000      7.060000      7.120000      7.160000      7.200000      7.260000      7.300000      7.340000      7.360000      7.400000      7.420000         </DataArray>
      </PointData>
      <Points>
        <DataArray type="Float32" Name="Points" NumberOfComponents="3" format="ascii">
10000.000000 20000.000000 0.000000
9994.543945 19900.148438 0.000000
9989.087891 19800.298828 0.000000
9983.631836 19700.447266 0.000000
9978.175781 19600.595703 0.000000
9972.719727 19500.744141 0.000000
9967.263672 19400.894531 0.000000
9961.807617 19301.042969 0.000000
9956.351562 19201.191406 0.000000
9950.895508 19101.339844 0.000000
9945.439453 19001.490234 0.000000
9939.983398 18901.638672 0.000000
9934.527344 18801.787109 0.000000
9929.071289 18701.935547 0.000000
9923.615234 18602.085938 0.000000
9918.159180 18502.234375 0.000000
9912.703125 18402.382812 0.000000
9907.246094 18302.533203 0.000000
9901.790039 18202.681641 0.000000
9896.333984 18102.830078 0.000000
9890.877930 18002.978516 0.000000
9885.421875 17903.128906 0.000000
9879.965820 17803.277344 0.000000
9874.509766 17703.425781 0.000000
9836.385742 17587.035156 0.000000
9799.541016 17494.070312 0.000000
9734.974609 17331.130859 0.000000
9698.139648 17238.162109 0.000000
9661.304688 17145.193359 0.000000
9624.469727 17052.224609 0.000000
9587.633789 16959.255859 0.000000
9550.798828 16866.287109 0.000000
9513.963867 16773.320312 0.000000
9477.128906 16680.351562 0.000000
9440.293945 16587.382812 0.000000
9403.458008 16494.414062 0.000000
9366.623047 16401.445312 0.000000
9271.863281 16366.826172 0.000000
9177.596680 16333.453125 0.000000
9083.330078 16300.080078 0.000000
8989.063477 16266.706055 0.000000
8894.796875 16233.333008 0.000000