<VTKFile type="PolyData" version="1.0" byte_order="LittleEndian" header_type="UInt64">
  <PolyData>
    <Piece NumberOfPoints="660" NumberOfLines="1318">
      <PointData Scalars="Scalars_">
        <DataArray type="Float32" Name="Scalars_" format="ascii">
     5.800000      5.800000      5.820000      5.820000      5.840000      5.860000      5.900000      5.920000      5.940000      5.980000      6.020000      6.060000      6.100000      6.140000      6.200000      381.039978      381.059998      381.059998      381.079987      381.079987      381.119995      381.059998      381.059998      381.079987      381.059998      381.100006      381.079987      381.119995      381.079987      381.119995      381.079987      381.100006      381.119995      381.139984      381.160004      381.199982      381.139984      381.139984      381.160004      8.240000      8.280000      8.340000      8.380000      8.400000      8.440000      8.480000      8.599999      8.800000      9.000000      9.120000      9.200000      9.240000      9.260000      9.260000      9.260000      9.280000      9.300000      9.340000      9.380000      9.440000      9.500000      9.559999      9.639999      9.719999      9.800000      9.880000      9.980000      10.059999      10.139999      10.219999      10.320000      10.440000      10.540000      10.599999      10.639999      10.679999      10.700000      10.719999      10.740000      10.780000      10.800000      10.840000      10.860000      10.900000      10.920000      10.940000      10.960000      10.980000      11.020000      11.040000      11.059999      11.139999      11.280000      11.500000      11.759999      11.940000      12.040000      12.099999      12.139999      12.139999      12.160000      12.179999      12.219999      12.259999      12.280000      12.320000      12.360000      12.400000      12.440000      12.500000      12.540000      12.580000      12.620000      12.679999      12.719999      12.780000      12.820000      12.880000      12.940000      13.000000      13.059999      13.120000      13.179999      13.240000      13.299999      11.639999      11.620000      11.599999      11.580000      11.559999      11.540000      11.500000      11.460000      11.440000      11.400000      11.360000      11.340000      11.300000      11.280000      11.240000      11.219999      11.200000      11.200000      11.179999      11.179999      12.160000      12.200000      12.240000      12.300000      12.340000      10.520000      10.500000      10.460000      10.420000      10.380000      10.340000      10.300000      10.260000      10.219999      10.200000      10.160000      10.120000      10.099999      10.080000      10.059999      10.040000      10.040000      10.040000      12.160000      12.200000      12.240000      12.300000      12.340000      10.520000      10.500000      10.460000      10.420000      10.380000      10.340000      10.300000      10.260000      10.219999      10.200000      10.160000      10.120000      10.099999      10.080000      10.059999      10.040000      10.040000      10.040000      10.679999      10.700000      10.719999      10.740000      10.780000      10.800000      10.840000      10.880000      10.900000      10.940000      10.980000      11.020000      11.059999      11.099999      11.139999      11.200000      11.280000      11.380000      11.500000      11.620000      11.719999      11.780000      11.820000      11.840000      11.860000      11.880000      11.920000      11.960000      11.980000      12.020000      12.059999      12.099999      12.139999      12.200000      12.240000      12.280000      12.340000      12.420000      12.500000      12.599999      12.719999      12.860000      12.980000      13.080000      13.160000      11.400000      11.360000      11.320000      11.280000      11.240000      11.200000      11.160000      11.139999      11.120000      11.420000      11.420000      11.420000      11.420000      11.420000      11.420000      11.420000      11.400000      11.380000      11.360000      11.340000      11.320000      11.300000      11.259999      11.240000      11.219999      11.200000      11.179999      11.160000      11.139999      11.139999      11.120000      11.120000      11.860000      11.900000      11.960000      12.020000      12.080000      12.139999      12.200000      10.240000      10.179999      10.120000      10.080000      10.040000      10.000000      9.960000      9.940000      9.900000      9.880000      9.840000      9.840000      9.820000      9.800000      9.800000      9.800000      9.240000      9.260000      9.280000      9.300000      9.320000      9.340000      9.380000      9.400000      9.420000      9.460000      9.480000      9.520000      9.559999      9.580000      9.639999      9.700000      9.780000      9.900000      10.059999      10.219999      10.340000      10.440000      10.500000      10.540000      10.580000      9.000000      8.980000      8.960000      8.920000      8.900000      8.880000      8.860000      8.820000      8.780000      8.740000      8.700000      8.660000      8.639999      8.599999      8.559999      8.540000      8.500000      8.480000      8.480000      8.460000      8.460000      10.540000      10.580000      9.000000      8.980000      8.960000      8.920000      8.900000      8.880000      8.860000      8.820000      8.780000      8.740000      8.700000      8.660000      8.639999      8.599999      8.559999      8.540000      8.500000      8.480000      8.480000      8.460000      8.460000      9.260000      9.260000      9.280000      9.320000      9.340000      9.380000      9.420000      9.440000      9.480000      9.520000      9.559999      9.599999      9.660000      9.700000      9.740000      9.780000      9.840000      9.880000      9.940000      10.000000      10.059999      10.120000      10.179999      10.240000      10.300000      10.360000      8.720000      8.700000      8.660000      8.639999      8.620000      8.580000      8.559999      8.520000      8.480000      8.460000      8.420000      8.380000      8.360000      8.320000      8.300000      8.280000      8.260000      8.240000      8.240000      8.240000      9.260000      9.300000      9.320000      9.380000      9.420000      9.480000      9.540000      9.599999      7.380000      7.320000      7.300000      7.260000      7.240000      7.200000      7.180000      7.160000      7.120000      7.100000      7.100000      7.080000      7.080000      7.060000      7.060000      381.079987      381.100006      381.059998      381.059998      381.019989      381.039978      381.039978      381.059998      7.880000      7.920000      7.980000      8.040000      8.080000      8.139999      8.179999      8.240000      8.320000      8.400000      8.500000      8.580000      8.639999      8.700000      8.720000      8.740000      8.760000      8.780000      8.820000      8.840000      8.880000      8.920000      8.960000      9.000000      9.059999      9.099999      9.139999      9.200000      9.240000      9.300000      9.380000      9.460000      9.559999      9.679999      9.800000      9.880000      9.940000      9.980000      10.000000      10.020000      10.059999      10.099999      10.120000      10.160000      10.200000      10.240000      10.280000      10.340000      10.380000      10.420000      10.460000      10.500000      10.559999      10.599999      10.660000      10.700000      10.760000      10.820000      10.880000      10.940000      11.000000      11.059999      11.120000      11.200000      9.540000      9.520000      9.500000      9.480000      9.460000      9.420000      9.380000      9.360000      9.320000      9.280000      9.260000      9.220000      9.179999      9.160000      9.139999      9.120000      9.099999      9.080000      9.080000      9.059999      10.000000      10.020000      10.059999      10.099999      10.120000      10.160000      10.200000      10.240000      10.280000      10.340000      10.380000      10.420000      10.460000      10.520000      10.559999      10.620000      10.679999      10.740000      10.800000      10.860000      10.920000      10.960000      11.020000      11.000000      11.080000      11.139999      11.219999      9.559999      9.540000      9.520000      9.500000      9.480000      9.440000      9.420000      9.380000      9.340000      9.300000      9.280000      9.240000      9.220000      9.179999      9.160000      9.139999      9.120000      9.099999      9.099999      9.099999      8.720000      8.740000      8.780000      8.800000      8.820000      8.860000      8.880000      8.920000      8.960000      8.980000      9.020000      9.059999      9.099999      9.139999      9.200000      9.260000      9.340000      9.460000      9.599999      9.740000      9.840000      9.920000      9.960000      9.980000      10.020000      10.040000      10.080000      10.120000      10.160000      10.200000      10.240000      10.280000      10.320000      10.360000      10.420000      10.460000      10.500000      10.559999      10.599999      10.660000      10.700000      10.760000      10.820000      10.880000      10.940000      11.000000      11.059999      11.120000      11.200000      9.540000      9.520000      9.500000      9.480000      9.460000      9.420000      9.380000      9.360000      9.320000      9.280000      9.260000      9.220000      9.200000      9.160000      9.139999      9.120000      9.099999      9.080000      9.080000      9.059999      10.000000      10.040000      10.099999      10.160000      10.219999      10.280000      8.400000      8.360000      8.320000      8.260000      8.220000      8.179999      8.139999      8.099999      8.059999      8.040000      8.000000      7.980000      7.960000      7.940000      7.920000      7.920000      7.920000         </DataArray>
      </PointData>
      <Points>
        <DataArray type="Float32" Name="Points" NumberOfComponents="3" format="ascii">
10000.000000 20000.000000 200.000000
10000.000000 19900.000000 200.000000
10000.000000 19800.000000 200.000000
10000.000000 19700.000000 200.000000
10000.000000 19600.000000 200.000000
10000.000000 19500.000000 200.000000
10000.000000 19400.000000 200.000000
10000.000000 19300.000000 200.000000
10000.000000 19200.000000 200.000000
10000.000000 19100.000000 200.000000
10000.000000 19000.000000 200.000000
10000.000000 18900.000000 200.000000
10000.000000 18800.000000 200.000000
10000.000000 18700.000000 200.000000
10000.000000 18600.000000 200.000000
10000.000000 18500.000000 200.000000
10000.000000 18400.000000 200.000000
10000.000000 18300.000000 200.000000
10000.000000 18200.000000 200.000000
10000.000000 18100.000000 200.000000
10000.000000 18000.000000 200.000000
10000.000000 17900.000000 200.000000
10000.000000 17800.000000 200.000000
10000.000000 17700.000000 200.000000
10000.000000 17600.000000 200.000000
10000.000000 17500.000000 200.000000
10000.000000 17400.000000 200.000000
10000.000000 17300.000000 200.000000
10000.000000 17200.000000 200.000000
10000.000000 17100.000000 200.000000
9980.136515 17001.992643 200.000000
9952.086515 16863.592643 200.000000
9924.029713 16725.194022 200.000000
9895.962719 16586.795440 200.000000
9867.926515 16448.492643 200.000000
9839.876515 16310.092643 200.000000
9811.819713 16171.694022 200.000000
9783.766515 16033.292643 200.000000
9755.716515 15894.892643 200.000000
9727.666515 15756.492643 200.000000
9699.602719 15618.095440 200.000000
9671.559713 15479.794022 200.000000
9643.506515 15341.392643 200.000000
9615.456515 15202.992643 200.000000
9587.406515 15064.592643 200.000000
9559.356515 14926.192643 200.000000
9531.299713 14787.794022 200.000000
9503.232719 14649.395440 200.000000
9475.196515 14511.092643 200.000000
9447.146515 14372.692643 200.000000
9419.089713 14234.294022 200.000000
9391.036515 14095.892643 200.000000
9362.986515 13957.492643 200.000000
9354.800000 13817.100000 200.000000
9354.800000 13664.300000 200.000000
9354.800000 13511.600000 200.000000
9354.800000 13358.800000 200.000000
9354.800000 13206.000000 200.000000
9354.800000 13053.200000 200.000000
9354.800000 12900.400000 200.000000
9354.800000 12747.600000 200.000000
9354.800000 12594.800000 200.000000
9354.800000 12442.100000 200.000000
9354.800000 12289.300000 200.000000
9354.800000 12136.500000 200.000000
9354.800000 11983.700000 200.000000
9354.800000 11830.900000 200.000000
9354.800000 11678.100000 200.000000
9354.800000 11525.300000 200.000000
9354.800000 11372.600000 200.000000
9354.800000 11219.800000 200.000000
9354.800000 11067.000000 200.000000
9354.800000 10914.200000 200.000000
9354.800000 10761.400000 200.000000
9354.800000 10608.600000 200.000000
9354.800000 10455.800000 200.000000
9374.664112 10305.092770 200.000000
9398.871996 10185.694369 200.000000
9423.074112 10066.292770 200.000000
9447.270916 9946.892123 200.000000
9471.474112 9827.472770 200.000000
9495.683595 9708.074693 200.000000
9519.884112 9588.682770 200.000000
9544.085710 9469.283094 200.000000
9568.284112 9349.892770 200.000000
9592.493595 9230.494693 200.000000
9616.695710 9111.103094 200.000000
9640.894112 8991.712770 200.000000
9665.095710 8872.313094 200.000000
9689.301996 8752.924369 200.000000
9713.505710 8633.523094 200.000000
9737.704112 8514.132770 200.000000
9761.905710 8394.733094 200.000000
9786.111996 8275.344369 200.000000
9807.721285 8155.452778 200.000000
9826.257010 8035.056333 200.000000
9841.859225 7914.239184 200.000000
9854.656654 7793.101018 200.000000
9864.789498 7671.704880 200.000000
9892.116766 7553.281466 200.000000
9918.335233 7454.218412 200.000000
9944.557647 7355.149051 200.000000
9970.777647 7256.089051 200.000000
9997.006766 7157.031466 200.000000
10023.264121 7057.978713 200.000000
10049.469406 6958.904225 200.000000
10075.669406 6859.844225 200.000000
10101.869406 6760.784225 200.000000
10128.160584 6661.748386 200.000000
10154.366993 6562.663587 200.000000
10180.569406 6463.594225 200.000000
10206.769406 6364.534225 200.000000
10232.969406 6265.474225 200.000000
10259.260584 6166.438386 200.000000
10285.469406 6067.354225 200.000000
10311.669406 5968.294225 200.000000
10337.869406 5869.234225 200.000000
10364.160584 5770.198386 200.000000
10390.366993 5671.113587 200.000000
10416.569406 5572.044225 200.000000
10442.769406 5472.984225 200.000000
10468.969406 5373.924225 200.000000
10475.481552 5271.713113 200.000000
10478.590484 5171.447767 200.000000
10478.899072 5071.140447 200.000000
10476.308389 4970.863588 200.000000
10471.016385 4870.679680 200.000000
10463.023893 4770.688599 200.000000
10452.234773 4670.971139 200.000000
10439.239657 4571.493409 200.000000
10423.949342 4472.359754 200.000000
10406.355439 4373.591087 200.000000
10386.558018 4275.248096 200.000000
10364.370205 4177.439376 200.000000
10339.875238 4080.158710 200.000000
10313.084460 3983.494654 200.000000
10284.195725 3887.428245 200.000000
10253.388069 3791.942898 200.000000
10220.412378 3697.232696 200.000000
10185.503627 3603.159200 200.000000
10148.718526 3509.850599 200.000000
10110.117225 3417.251159 200.000000
10069.719456 3325.441437 200.000000
10027.630975 3234.403261 200.000000
9983.830344 3144.159113 200.000000
8995.775131 5664.939325 200.000000
8939.295131 5552.619325 200.000000
8882.815131 5440.299325 200.000000
8826.335131 5327.979325 200.000000
8769.855131 5215.659325 200.000000
8713.378323 5103.337720 200.000000
8656.895131 4991.009325 200.000000
8600.415131 4878.689325 200.000000
8543.935131 4766.369325 200.000000
8487.455131 4654.049325 200.000000
8430.975131 4541.729325 200.000000
8374.495131 4429.409325 200.000000
8318.015131 4317.089325 200.000000
8261.538323 4204.767720 200.000000
8205.055131 4092.439325 200.000000
8148.575131 3980.119325 200.000000
8092.101480 3867.796133 200.000000
8035.625131 3755.479325 200.000000
7979.145131 3643.159325 200.000000
7922.665131 3530.839325 200.000000
7866.185131 3418.519325 200.000000
7809.708323 3306.197720 200.000000
7753.225131 3193.869325 200.000000
8964.530890 5689.485967 200.000000
8867.247666 5610.572373 200.000000
8767.709492 5534.531421 200.000000
8666.005696 5461.412183 200.000000
8562.234292 5391.251044 200.000000
8456.851222 5323.536583 200.000000
8349.929687 5258.272935 200.000000
8241.477651 5195.592668 200.000000
8131.512641 5135.584807 200.000000
8020.100349 5078.326623 200.000000
7907.292508 5023.878670 200.000000
7793.281130 4971.988469 200.000000
7678.140107 4922.639856 200.000000
7561.925752 4875.893297 200.000000
7444.674564 4831.813086 200.000000
7326.523323 4790.198063 200.000000
7207.530884 4751.039770 200.000000
7087.742156 4714.389516 200.000000
6968.691254 4675.448487 200.000000
6850.793211 4633.131517 200.000000
6734.096080 4587.612889 200.000000
6618.608051 4539.089270 200.000000
6504.328821 4487.787677 200.000000
9334.946185 10305.090684 200.000000
9308.389194 10189.027055 200.000000
9278.488897 10073.929966 200.000000
9245.169969 9959.629438 200.000000
9208.568464 9846.455579 200.000000
9169.277999 9734.139236 200.000000
9127.324392 9622.787352 200.000000
9082.646978 9512.505667 200.000000
9035.213879 9403.391900 200.000000
8985.019844 9295.504231 200.000000
8932.417078 9188.778337 200.000000
8877.419304 9083.260319 200.000000
8820.031405 8979.025553 200.000000
8760.244305 8876.146537 200.000000
8698.299671 8774.551491 200.000000
8634.223518 8674.291220 200.000000
8568.020863 8575.416139 200.000000
8499.700671 8477.995112 200.000000
8429.440165 8381.959632 200.000000
8357.286930 8287.347658 200.000000
8283.384852 8194.085823 200.000000
8207.772420 8102.217794 200.000000
8130.437718 8011.787270 200.000000
8067.673897 7911.005695 200.000000
8016.421231 7823.101418 200.000000
7965.171231 7735.201418 200.000000
7913.909620 7647.308189 200.000000
7862.661231 7559.411418 200.000000
7811.411231 7471.511418 200.000000
7760.153897 7383.615695 200.000000
7708.896954 7295.713912 200.000000
7657.651231 7207.821418 200.000000
7606.393897 7119.925695 200.000000
7555.141231 7032.021418 200.000000
7503.891231 6944.121418 200.000000
7452.629620 6856.228189 200.000000
7401.381231 6768.331418 200.000000
7350.131231 6680.431418 200.000000
7298.873897 6592.535695 200.000000
7247.621231 6504.631418 200.000000
7196.366954 6416.733912 200.000000
7145.113897 6328.845695 200.000000
7093.861231 6240.941418 200.000000
7040.163982 6154.515524 200.000000
6984.083368 6069.616896 200.000000
6925.734856 5986.264058 200.000000
6882.410155 5894.226299 200.000000
6834.292934 5791.229672 200.000000
6786.176307 5688.228096 200.000000
6738.052934 5585.219672 200.000000
6689.940155 5482.216299 200.000000
6641.822934 5379.219672 200.000000
6593.702934 5276.219672 200.000000
6543.611366 5174.167164 200.000000
6850.466966 5917.859844 200.000000
6750.843805 5831.411487 200.000000
6649.079353 5747.481479 200.000000
6545.248871 5666.113996 200.000000
6439.442345 5587.344428 200.000000
6331.732446 5511.200143 200.000000
6222.193212 5437.703388 200.000000
6110.904494 5366.897624 200.000000
5997.935318 5298.780677 200.000000
5883.569303 5233.050333 200.000000
5768.081191 5169.301866 200.000000
5651.684066 5107.233622 200.000000
5534.540955 5046.575713 200.000000
5416.771926 4987.149516 200.000000
5298.469205 4928.780900 200.000000
5179.140003 4872.563884 200.000000
5058.725931 4818.705858 200.000000
4937.363323 4767.011756 200.000000
4815.180431 4717.296275 200.000000
4692.271434 4669.388646 200.000000
4568.724729 4623.142642 200.000000
4444.626323 4578.414920 200.000000
4320.029560 4535.090043 200.000000
6976.855818 7521.597660 200.000000
6835.548875 7468.511740 200.000000
6695.839015 7411.355763 200.000000
6557.706436 7350.477892 200.000000
6421.213894 7286.005640 200.000000
6286.490066 7217.922853 200.000000
6153.564446 7146.399927 200.000000
6022.486174 7071.527385 200.000000
5893.293722 6993.444735 200.000000
5765.980503 6912.346933 200.000000
5640.374697 6828.609356 200.000000
5516.264515 6742.674205 200.000000
5393.447233 6654.901503 200.000000
5271.750319 6565.566098 200.000000
5151.046691 6474.899262 200.000000
5031.223263 6383.080690 200.000000
4909.912261 6293.258684 200.000000
4785.975588 6207.082186 200.000000
4659.522986 6124.645317 200.000000
4530.679481 6046.019770 200.000000
4399.539929 5971.263616 200.000000
4266.231339 5900.444471 200.000000
4130.876700 5833.635726 200.000000
7605.591531 11763.145875 200.000000
7493.815734 11676.001994 200.000000
7381.971531 11588.845875 200.000000
7270.193067 11501.705414 200.000000
7158.341531 11414.545875 200.000000
7046.565734 11327.401994 200.000000
6934.721531 11240.245875 200.000000
6822.945734 11153.101994 200.000000
6711.101531 11065.945875 200.000000
6599.325734 10978.801994 200.000000
6489.115916 10889.603492 200.000000
6381.285031 10797.625482 200.000000
6275.876950 10702.888949 200.000000
6172.799696 10605.500578 200.000000
6072.073517 10505.755380 200.000000
5973.743935 10403.710621 200.000000
5877.681851 10299.397694 200.000000
5784.011651 10193.013786 200.000000
5692.712939 10084.593502 200.000000
5603.832323 9974.204374 200.000000
5517.316472 9861.885336 200.000000
5433.215700 9747.771578 200.000000
5351.527432 9631.920696 200.000000
5289.806715 9505.085304 200.000000
5241.656715 9387.385304 200.000000
5193.499979 9269.688060 200.000000
5145.343960 9151.986432 200.000000
5097.196715 9034.295304 200.000000
5049.039979 8916.598060 200.000000
5000.886715 8798.895304 200.000000
4952.736715 8681.195304 200.000000
4904.579979 8563.498060 200.000000
4856.423960 8445.796432 200.000000
4808.276715 8328.105304 200.000000
4757.384908 8211.574955 200.000000
4703.021171 8096.614462 200.000000
4645.262361 7983.331706 200.000000
4584.218393 7871.787225 200.000000
4520.058814 7762.005482 200.000000
4452.838811 7654.063363 200.000000
4382.605331 7548.062013 200.000000
4309.411334 7444.073024 200.000000
4233.235609 7342.254896 200.000000
4154.116257 7242.719138 200.000000
4072.109727 7145.541163 200.000000
3987.285530 7050.811727 200.000000
5256.753805 9527.135438 200.000000
5168.540095 9443.644505 200.000000
5077.878377 9362.795386 200.000000
4984.865507 9284.682561 200.000000
4890.091535 9208.705581 200.000000
4793.585348 9134.948208 200.000000
4695.293463 9063.581628 200.000000
4595.221593 8994.729310 200.000000
4493.411403 8928.487706 200.000000
4390.119638 8864.571562 200.000000
4285.406740 8802.996414 200.000000
4179.305233 8743.876825 200.000000
4071.829188 8687.267034 200.000000
3963.168544 8632.977914 200.000000
3853.368472 8581.018636 200.000000
3742.470259 8531.473434 200.000000
3630.502104 8484.376985 200.000000
3517.514489 8439.795615 200.000000
3403.541346 8397.758853 200.000000
3288.660909 8358.313456 200.000000
3172.908256 8321.476734 200.000000
3056.364437 8287.275775 200.000000
2939.019348 8255.872826 200.000000
6936.967995 12404.019727 200.000000
6817.829452 12387.238227 200.000000
6698.667995 12370.519727 200.000000
6579.529452 12353.738227 200.000000
6460.379452 12336.938227 200.000000
6341.217995 12320.219727 200.000000
6222.079614 12303.437078 200.000000
6102.927995 12286.719727 200.000000
5983.789452 12269.938227 200.000000
5864.627995 12253.219727 200.000000
5745.489452 12236.438227 200.000000
5626.339452 12219.638227 200.000000
5507.177995 12202.919727 200.000000
5388.039452 12186.138227 200.000000
5268.878155 12169.418585 200.000000
5149.749452 12152.638227 200.000000
5030.599452 12135.838227 200.000000
4911.437995 12119.119727 200.000000
4792.299452 12102.338227 200.000000
4673.137995 12085.619727 200.000000
4553.999452 12068.838227 200.000000
4434.838155 12052.118585 200.000000
4315.709452 12035.338227 200.000000
4195.764635 12038.573957 200.000000
4092.228836 12044.777893 200.000000
3988.698836 12050.977893 200.000000
3885.174635 12057.273957 200.000000
3781.638801 12063.477317 200.000000
3678.104635 12069.773957 200.000000
3574.568836 12075.977893 200.000000
3471.044635 12082.273957 200.000000
3367.508836 12088.477893 200.000000
3263.984635 12094.773957 200.000000
3160.448836 12100.977893 200.000000
3056.924635 12107.273957 200.000000
2953.388836 12113.477893 200.000000
2849.864635 12119.773957 200.000000
2746.328836 12125.977893 200.000000
2642.804635 12132.273957 200.000000
2539.268836 12138.477893 200.000000
2435.744635 12144.773957 200.000000
2332.208836 12150.977893 200.000000
2228.684635 12157.273957 200.000000
2125.148836 12163.477893 200.000000
2021.624635 12169.773957 200.000000
1918.088836 12175.977893 200.000000
6939.365729 12443.625819 200.000000
6758.345183 12493.417359 200.000000
6578.494755 12547.232106 200.000000
6400.095493 12605.727802 200.000000
6223.333079 12668.887515 200.000000
6048.329659 12736.831808 200.000000
5875.041240 12809.121744 200.000000
5703.628165 12885.671357 200.000000
5534.244687 12966.551650 200.000000
5366.828603 13051.531843 200.000000
5201.523990 13140.519502 200.000000
5038.444963 13233.494696 200.000000
4877.578202 13330.265007 200.000000
4718.927129 13430.631533 200.000000
4562.513409 13534.436856 200.000000
4408.396257 13641.654894 200.000000
4256.712518 13752.249207 200.000000
4107.371583 13866.077093 200.000000
3960.516549 13982.944427 200.000000
3815.899276 14102.749652 200.000000
3673.450456 14225.033850 200.000000
3533.011910 14349.597944 200.000000
3394.399180 14476.224866 200.000000
10019.861285 17001.992197 200.000000
10048.776113 16874.328296 200.000000
10081.542492 16747.670170 200.000000
10118.080512 16621.971224 200.000000
10157.604741 16497.230578 200.000000
10200.118020 16373.408208 200.000000
10245.746999 16250.793261 200.000000
10294.601962 16129.361137 200.000000
10346.694098 16009.321495 200.000000
10401.614016 15890.440344 200.000000
10459.299128 15772.996270 200.000000
10519.797447 15656.872920 200.000000
10582.790238 15542.198691 200.000000
10648.291553 15428.883124 200.000000
10716.335328 15317.049919 200.000000
10786.818792 15206.838885 200.000000
10859.615516 15098.061229 200.000000
10934.640264 14990.854045 200.000000
11011.788625 14885.071378 200.000000
11091.000889 14780.883660 200.000000
11172.204279 14678.260983 200.000000
11255.330273 14577.121456 200.000000
11340.242565 14477.614726 200.000000
11440.442108 14394.256185 200.000000
11531.642108 14325.956185 200.000000
11622.884220 14257.712458 200.000000
11714.042108 14189.456185 200.000000
11805.242108 14121.156185 200.000000
11896.410538 14052.814053 200.000000
11987.584220 13984.612458 200.000000
12078.742108 13916.356185 200.000000
12169.942108 13848.056185 200.000000
12261.142108 13779.756185 200.000000
12352.384220 13711.512458 200.000000
12443.542108 13643.256185 200.000000
12534.710538 13574.914053 200.000000
12625.842108 13506.656185 200.000000
12717.084220 13438.412458 200.000000
12808.242108 13370.156185 200.000000
12899.442108 13301.856185 200.000000
12990.642108 13233.556185 200.000000
13081.852693 13165.270322 200.000000
13172.942108 13097.056185 200.000000
13264.142108 13028.756185 200.000000
13355.342108 12960.456185 200.000000
13446.584220 12892.212458 200.000000
15491.564871 11897.686592 200.000000
15608.079167 11806.646028 200.000000
15722.216758 11712.655327 200.000000
15833.938372 11615.686403 200.000000
15942.869552 11515.729651 200.000000
16049.183206 11412.866523 200.000000
16152.679761 11307.282997 200.000000
16253.503070 11199.112654 200.000000
16351.611550 11088.421010 200.000000
16447.018591 10975.394774 200.000000
16539.581960 10860.125567 200.000000
16629.483774 10742.638161 200.000000
16716.653851 10623.191454 200.000000
16801.126552 10501.809098 200.000000
16882.903072 10378.588747 200.000000
16962.033034 10253.658419 200.000000
17038.600696 10127.101870 200.000000
17112.773563 9999.209810 200.000000
17184.813678 9869.970404 200.000000
17258.743772 9741.910123 200.000000
17336.458074 9616.085087 200.000000
17417.906062 9492.687322 200.000000
17502.926127 9371.649827 200.000000
17605.923634 9266.726669 200.000000
17692.790226 9190.338665 200.000000
17779.585936 9113.993788 200.000000
17866.423634 9037.686669 200.000000
17953.290226 8961.298665 200.000000
18040.085936 8884.953788 200.000000
18126.923634 8808.646669 200.000000
18213.790226 8732.258665 200.000000
18300.585936 8655.913788 200.000000
18387.423634 8579.606669 200.000000
18474.290226 8503.218665 200.000000
18561.085936 8426.873788 200.000000
18647.923634 8350.566669 200.000000
18734.790226 8274.178665 200.000000
18821.585936 8197.833788 200.000000
18910.321567 8123.751648 200.000000
19001.211617 8052.197348 200.000000
19094.038621 7983.324959 200.000000
19188.814551 7917.152259 200.000000
19285.429556 7853.554946 200.000000
19383.706496 7792.676395 200.000000
19483.632661 7734.562207 200.000000
19585.131912 7679.116699 200.000000
13524.248524 12809.258899 200.000000
13599.752344 12720.995446 200.000000
13673.307869 12631.128118 200.000000
13744.786740 12539.581423 200.000000
13814.160911 12446.398507 200.000000
13880.924890 12351.492000 200.000000
13945.152158 12254.652048 200.000000
14006.697699 12156.212045 200.000000
14065.747639 12056.215956 200.000000
14122.303332 11954.795043 200.000000
14176.227145 11851.974093 200.000000
14227.730705 11747.815274 200.000000
14276.640294 11642.573848 200.000000
14323.165575 11536.146531 200.000000
14367.228466 11428.649590 200.000000
14408.978362 11320.281295 200.000000
14448.535360 11211.198096 200.000000
14485.855138 11101.209440 200.000000
14520.886343 10990.470411 200.000000
14553.762800 10879.118339 200.000000
14584.393072 10767.064247 200.000000
14612.873815 10654.490815 200.000000
14639.285951 10541.360880 200.000000
14739.526648 8741.929670 200.000000
16012.995099 8830.841641 200.000000
16125.559571 8709.048801 200.000000
16238.095099 8587.311641 200.000000
16350.662577 8465.521579 200.000000
16463.192094 8343.788861 200.000000
16575.795099 8222.021641 200.000000
16688.362577 8100.231579 200.000000
16800.892094 7978.498861 200.000000
16913.462577 7856.701579 200.000000
17025.995099 7734.971641 200.000000
17138.592094 7613.208861 200.000000
17249.403297 7489.824314 200.000000