<VTKFile type="PolyData" version="1.0" byte_order="LittleEndian" header_type="UInt64">
  <PolyData>
    <Piece NumberOfPoints="322" NumberOfLines="642">
      <PointData Scalars="Scalars_">
        <DataArray type="Float32" Name="Scalars_" format="ascii">
     504.579987      504.599976      1.180000      1.320000      1.540000      1.780000      2.020000      2.260000      2.500000      2.740000      2.980000      3.240000      3.480000      3.760000      4.160000      4.440000      4.680000      4.920000      5.160000      5.400000      5.660000      5.900000      6.140000      6.400000      6.640000      6.880000      7.120000      7.380000      7.620000      7.860000      8.139999      8.540000      8.820000      9.059999      9.300000      9.540000      9.800000      10.040000      10.280000      10.520000      10.780000      11.020000      11.259999      11.500000      11.759999      12.000000      12.280000      12.679999      12.960000      13.200000      13.440000      13.679999      13.920000      14.179999      14.420000      14.660000      14.900000      15.160000      15.400000      15.639999      15.880000      16.119999      16.379999      16.619999      16.859999      17.100000      17.359999      17.600000      17.840000      18.080000      18.340000      18.580000      18.820000      19.059999      19.320000      19.559999      19.799999      20.039999      20.299999      20.539999      20.779999      21.020000      21.279999      21.520000      21.760000      22.000000      22.260000      22.500000      22.740000      22.980000      23.219999      23.480000      23.719999      23.959999      24.199999      24.459999      24.699999      24.939999      25.180000      25.439999      25.680000      25.920000      26.160000      26.400000      26.660000      26.900000      27.139999      27.340000      12.679999      12.960000      13.200000      13.440000      13.679999      13.920000      14.179999      14.420000      14.660000      14.900000      15.160000      15.400000      15.639999      15.880000      16.119999      16.379999      16.619999      16.859999      17.100000      17.359999      17.600000      17.840000      18.080000      18.340000      18.580000      18.820000      19.059999      19.320000      19.559999      19.799999      20.039999      20.299999      20.539999      20.779999      21.039999      21.299999      21.699999      21.980000      22.219999      22.459999      22.699999      22.959999      23.199999      23.439999      23.680000      23.920000      24.180000      24.420000      24.660000      24.900000      25.139999      25.340000      21.699999      21.980000      22.219999      22.459999      22.699999      22.959999      23.199999      23.439999      23.680000      23.920000      24.180000      24.420000      24.660000      24.900000      25.160000      25.400000      25.639999      25.879999      26.119999      26.320000      8.540000      8.820000      9.059999      9.300000      9.540000      9.800000      10.040000      10.280000      10.520000      10.760000      11.000000      11.219999      4.160000      4.440000      4.680000      4.920000      5.160000      5.400000      5.660000      5.900000      6.140000      6.400000      6.640000      6.880000      7.120000      7.380000      7.620000      7.860000      8.099999      8.360000      8.599999      8.840000      9.080000      9.340000      9.580000      9.820000      10.080000      10.320000      10.559999      10.800000      11.059999      11.300000      11.540000      11.780000      12.040000      12.280000      12.520000      12.759999      13.020000      13.259999      13.500000      13.740000      14.000000      14.240000      14.480000      14.719999      14.980000      15.219999      15.460000      15.700000      15.960000      16.199999      16.440001      16.680000      16.940001      17.180000      17.420000      17.660000      17.920000      18.160000      18.400000      18.639999      18.900000      19.160000      19.559999      19.859999      20.080000      20.340000      20.580000      20.820000      21.059999      21.299999      21.559999      21.799999      22.039999      22.279999      22.519999      22.779999      23.019999      23.260000      23.500000      23.760000      24.000000      24.240000      24.480000      24.719999      24.980000      25.219999      25.459999      25.699999      25.959999      26.199999      26.439999      26.680000      26.920000      27.160000      27.379999      19.559999      19.859999      20.080000      20.340000      20.580000      20.820000      21.059999      21.299999      21.559999      21.799999      22.039999      22.279999      22.519999      22.779999      23.019999      23.260000      23.500000      23.760000      24.000000      24.240000      24.480000      24.719999      24.980000      25.219999      25.459999      25.699999      25.959999      26.199999      26.439999      26.680000      26.939999      27.180000      27.420000      27.660000      27.859999         </DataArray>
      </PointData>
      <Points>
        <DataArray type="Float32" Name="Points" NumberOfComponents="3" format="ascii">
10000.000000 20000.000000 0.000000
10000.000000 19900.000000 0.000000
10000.000000 19800.000000 0.000000
9965.089844 19706.291016 0.000000
9930.179688 19612.583984 0.000000
9895.269531 19518.875000 0.000000
9913.330078 19364.595703 0.000000
9955.000000 19273.691406 0.000000
9996.669922 19182.787109 0.000000
10038.339844 19091.882812 0.000000
10080.009766 19000.978516 0.000000
10121.679688 18910.074219 0.000000
10163.349609 18819.169922 0.000000
10205.019531 18728.263672 0.000000
10286.345703 18649.134766 0.000000
10361.590820 18583.271484 0.000000
10436.835938 18517.406250 0.000000
10512.082031 18451.542969 0.000000
10587.327148 18385.677734 0.000000
10662.572266 18319.812500 0.000000
10737.817383 18253.949219 0.000000
10813.063477 18188.083984 0.000000
10888.308594 18122.218750 0.000000
10963.553711 18056.355469 0.000000
11038.798828 17990.490234 0.000000
11114.044922 17924.626953 0.000000
11189.290039 17858.761719 0.000000
11264.535156 17792.896484 0.000000
11339.781250 17727.033203 0.000000
11415.026367 17661.167969 0.000000
11490.271484 17595.302734 0.000000
11636.731445 17529.353516 0.000000
11734.063477 17506.406250 0.000000
11831.394531 17483.458984 0.000000
11928.726562 17460.511719 0.000000
12026.057617 17437.564453 0.000000
12123.389648 17414.617188 0.000000
12220.720703 17391.669922 0.000000
12318.052734 17368.722656 0.000000
12415.383789 17345.775391 0.000000
12512.715820 17322.828125 0.000000
12610.046875 17299.880859 0.000000
12707.378906 17276.933594 0.000000
12804.709961 17253.986328 0.000000
12902.041992 17231.039062 0.000000
12999.373047 17208.091797 0.000000
13096.705078 17185.146484 0.000000
13181.884766 17080.121094 0.000000
13217.668945 16986.744141 0.000000
13253.453125 16893.365234 0.000000
13289.237305 16799.988281 0.000000
13325.021484 16706.609375 0.000000
13360.806641 16613.230469 0.000000
13396.590820 16519.853516 0.000000
13432.375000 16426.474609 0.000000
13468.159180 16333.096680 0.000000
13503.944336 16239.718750 0.000000
13539.728516 16146.340820 0.000000
13575.512695 16052.961914 0.000000
13611.296875 15959.583984 0.000000
13647.081055 15866.206055 0.000000
13682.866211 15772.828125 0.000000
13718.650391 15679.450195 0.000000
13754.434570 15586.071289 0.000000
13790.218750 15492.693359 0.000000
13826.003906 15399.315430 0.000000
13907.270508 15307.088867 0.000000
13979.641602 15238.078125 0.000000
14052.011719 15169.067383 0.000000
14124.382812 15100.056641 0.000000
14196.753906 15031.045898 0.000000
14269.124023 14962.035156 0.000000
14341.495117 14893.025391 0.000000
14413.865234 14824.014648 0.000000
14486.236328 14755.003906 0.000000
14558.607422 14685.993164 0.000000
14630.977539 14616.982422 0.000000
14703.348633 14547.971680 0.000000
14775.718750 14478.960938 0.000000
14848.089844 14409.950195 0.000000
14920.460938 14340.939453 0.000000
14992.831055 14271.928711 0.000000
15065.202148 14202.917969 0.000000
15137.572266 14133.907227 0.000000
15209.943359 14064.896484 0.000000
15282.314453 13995.885742 0.000000
15392.628906 13950.980469 0.000000
15487.858398 13920.461914 0.000000
15583.086914 13889.942383 0.000000
15678.316406 13859.423828 0.000000
15773.545898 13828.904297 0.000000
15868.774414 13798.385742 0.000000
15964.003906 13767.866211 0.000000
16059.233398 13737.346680 0.000000
16154.461914 13706.828125 0.000000
16249.691406 13676.308594 0.000000
16344.919922 13645.790039 0.000000
16440.148438 13615.270508 0.000000
16535.378906 13584.751953 0.000000
16630.607422 13554.232422 0.000000
16725.835938 13523.713867 0.000000
16821.066406 13493.194336 0.000000
16916.294922 13462.674805 0.000000
17011.523438 13432.156250 0.000000
17106.753906 13401.636719 0.000000
17201.982422 13371.118164 0.000000
17297.210938 13340.598633 0.000000
17392.441406 13310.080078 0.000000
13238.188477 17134.515625 0.000000
13330.276367 17095.531250 0.000000
13422.364258 17056.546875 0.000000
13514.453125 17017.564453 0.000000
13606.541016 16978.580078 0.000000
13698.629883 16939.595703 0.000000
13790.717773 16900.611328 0.000000
13882.805664 16861.626953 0.000000
13974.894531 16822.642578 0.000000
14066.982422 16783.660156 0.000000
14159.070312 16744.675781 0.000000
14251.159180 16705.691406 0.000000
14343.247070 16666.707031 0.000000
14435.334961 16627.722656 0.000000
14527.423828 16588.738281 0.000000
14713.103516 16543.400391 0.000000
14812.706055 16534.500000 0.000000
14912.309570 16525.601562 0.000000
15011.913086 16516.701172 0.000000
15111.515625 16507.802734 0.000000
15211.119141 16498.902344 0.000000
15310.722656 16490.001953 0.000000
15410.325195 16481.103516 0.000000
15509.928711 16472.203125 0.000000
15609.532227 16463.304688 0.000000
15709.134766 16454.404297 0.000000
15808.738281 16445.503906 0.000000
15908.341797 16436.605469 0.000000
16007.944336 16427.705078 0.000000
16107.547852 16418.806641 0.000000
16207.151367 16409.906250 0.000000
16306.753906 16401.007812 0.000000
16406.357422 16392.107422 0.000000
16505.960938 16383.208008 0.000000
16605.564453 16374.308594 0.000000
16705.167969 16365.408203 0.000000
16813.886719 16299.143555 0.000000
16891.173828 16235.686523 0.000000
16968.458984 16172.229492 0.000000
17045.746094 16108.772461 0.000000
17123.033203 16045.315430 0.000000
17200.320312 15981.858398 0.000000
17277.607422 15918.402344 0.000000
17354.892578 15854.945312 0.000000
17432.179688 15791.488281 0.000000
17509.466797 15728.031250 0.000000
17586.753906 15664.574219 0.000000
17664.039062 15601.117188 0.000000
17741.326172 15537.661133 0.000000
17818.613281 15474.204102 0.000000
17895.900391 15410.747070 0.000000
17973.185547 15347.290039 0.000000
16835.005859 16344.818359 0.000000
16933.412109 16327.037109 0.000000
17031.818359 16309.255859 0.000000
17130.226562 16291.474609 0.000000
17228.632812 16273.692383 0.000000
17327.039062 16255.911133 0.000000
17425.445312 16238.129883 0.000000
17523.851562 16220.348633 0.000000
17622.257812 16202.567383 0.000000
17720.664062 16184.785156 0.000000
17819.070312 16167.003906 0.000000
17917.476562 16149.222656 0.000000
18015.882812 16131.441406 0.000000
18114.289062 16113.660156 0.000000
18212.695312 16095.877930 0.000000
18311.101562 16078.096680 0.000000
18409.509766 16060.315430 0.000000
18507.916016 16042.534180 0.000000
18606.322266 16024.752930 0.000000
18704.728516 16006.970703 0.000000
11534.380859 17452.425781 0.000000
11529.361328 17352.552734 0.000000
11524.342773 17252.677734 0.000000
11519.323242 17152.804688 0.000000
11514.303711 17052.929688 0.000000
11509.285156 16953.056641 0.000000
11504.265625 16853.181641 0.000000
11499.246094 16753.308594 0.000000
11494.227539 16653.433594 0.000000
11489.208008 16553.560547 0.000000
11484.189453 16453.685547 0.000000
11479.169922 16353.812500 0.000000
10172.118164 18622.910156 0.000000
10133.137695 18530.820312 0.000000
10094.156250 18438.732422 0.000000
10055.174805 18346.642578 0.000000
10016.193359 18254.552734 0.000000
9977.211914 18162.462891 0.000000
9938.230469 18070.375000 0.000000
9899.249023 17978.285156 0.000000
9860.267578 17886.195312 0.000000
9821.286133 17794.105469 0.000000
9782.304688 17702.017578 0.000000
9743.323242 17609.927734 0.000000
9704.341797 17517.837891 0.000000
9665.360352 17425.748047 0.000000
9626.378906 17333.660156 0.000000
9587.397461 17241.570312 0.000000
9548.416016 17149.480469 0.000000
9509.434570 17057.390625 0.000000
9470.453125 16965.302734 0.000000
9431.472656 16873.212891 0.000000
9392.491211 16781.123047 0.000000
9353.509766 16689.033203 0.000000
9314.528320 16596.945312 0.000000
9275.546875 16504.855469 0.000000
9236.565430 16412.765625 0.000000
9282.375000 16309.310547 0.000000
9336.339844 16225.122070 0.000000
9390.304688 16140.932617 0.000000
9444.269531 16056.744141 0.000000
9498.234375 15972.554688 0.000000
9552.200195 15888.366211 0.000000
9606.165039 15804.176758 0.000000
9660.129883 15719.988281 0.000000
9714.094727 15635.798828 0.000000
9768.059570 15551.610352 0.000000
9822.024414 15467.420898 0.000000
9875.989258 15383.232422 0.000000
9929.954102 15299.042969 0.000000
9983.918945 15214.854492 0.000000
10037.884766 15130.665039 0.000000
10091.849609 15046.476562 0.000000
10145.814453 14962.287109 0.000000
10199.779297 14878.098633 0.000000
10253.744141 14793.909180 0.000000
10307.708984 14709.720703 0.000000
10361.673828 14625.531250 0.000000
10488.047852 14490.451172 0.000000
10567.096680 14429.203125 0.000000
10646.144531 14367.954102 0.000000
10725.192383 14306.706055 0.000000
10804.241211 14245.457031 0.000000
10883.289062 14184.208984 0.000000
10962.337891 14122.960938 0.000000
11041.385742 14061.711914 0.000000
11120.433594 14000.463867 0.000000
11199.482422 13939.214844 0.000000
11278.530273 13877.966797 0.000000
11357.578125 13816.717773 0.000000
11436.626953 13755.469727 0.000000
11515.674805 13694.220703 0.000000
11594.723633 13632.972656 0.000000
11673.771484 13571.723633 0.000000
11783.176758 13516.530273 0.000000
11874.354492 13475.459961 0.000000
11965.531250 13434.390625 0.000000
12056.708984 13393.321289 0.000000
12147.885742 13352.250977 0.000000
12239.062500 13311.181641 0.000000
12330.240234 13270.111328 0.000000
12421.416992 13229.041992 0.000000
12512.594727 13187.971680 0.000000
12603.771484 13146.902344 0.000000
12694.948242 13105.832031 0.000000
12786.125977 13064.762695 0.000000
12877.302734 13023.693359 0.000000
12968.480469 12982.623047 0.000000
13059.657227 12941.553711 0.000000
13150.833984 12900.483398 0.000000
13242.011719 12859.414062 0.000000
13333.188477 12818.343750 0.000000
13424.366211 12777.274414 0.000000
13514.031250 12659.249023 0.000000
13549.362305 12565.699219 0.000000
13584.693359 12472.148438 0.000000
13620.024414 12378.597656 0.000000
13655.355469 12285.046875 0.000000
13690.686523 12191.496094 0.000000
13726.017578 12097.945312 0.000000
13761.348633 12004.395508 0.000000
13796.679688 11910.844727 0.000000
13832.010742 11817.293945 0.000000
13867.341797 11723.743164 0.000000
13902.672852 11630.192383 0.000000
13938.003906 11536.642578 0.000000
13973.334961 11443.091797 0.000000
11682.698242 13458.033203 0.000000
11673.396484 13358.466797 0.000000
11664.094727 13258.900391 0.000000
11654.792969 13159.333984 0.000000
11645.492188 13059.767578 0.000000
11636.190430 12960.201172 0.000000
11626.888672 12860.634766 0.000000
11617.586914 12761.068359 0.000000
11608.285156 12661.501953 0.000000
11598.983398 12561.935547 0.000000
11589.681641 12462.369141 0.000000
11580.379883 12362.802734 0.000000
11571.078125 12263.236328 0.000000
11561.777344 12163.669922 0.000000
11552.475586 12064.103516 0.000000
11543.173828 11964.537109 0.000000
11533.872070 11864.970703 0.000000
11599.989258 11789.240234 0.000000
11666.177734 11714.279297 0.000000
11732.367188 11639.319336 0.000000
11798.555664 11564.359375 0.000000
11864.745117 11489.399414 0.000000
11930.933594 11414.439453 0.000000
11997.123047 11339.479492 0.000000
12063.311523 11264.518555 0.000000
12129.500977 11189.558594 0.000000
12195.689453 11114.598633 0.000000
12261.878906 11039.638672 0.000000
12328.067383 10964.678711 0.000000
12394.256836 10889.717773 0.000000
12460.445312 10814.757812 0.000000
12526.634766 10739.797852 0.000000
12592.823242 10664.837891 0.000000
12659.012695 10589.877930 0.000000
12725.201172 10514.917969 0.000000
        </DataArray>
      </Points>
      <Lines>
        <DataArray type="Int64" Name="connectivity" format="ascii">
0 1
1 0
1 2
2 1
2 3
3 2
3 4
4 3
4 5
5 4
5 6
6 5
6 7
7 6
7 8
8 7
8 9
9 8
9 10
10 9
10 11
11 10
11 12
12 11
12 13
13 12
13 14
13 192
14 13
14 15
15 14
15 16
16 15
16 17
17 16
17 18
18 17
18 19
19 18
19 20
20 19
20 21
21 20
21 22
22 21
22 23
23 22
23 24
24 23
24 25
25 24
25 26
26 25
26 27
27 26
27 28
28 27
28 29
29 28
29 30
30 29
30 31
30 180
31 30
31 32
32 31
32 33
33 32
33 34
34 33
34 35
35 34
35 36
36 35
36 37
37 36
37 38
38 37
38 39
39 38
39 40
40 39
40 41
41 40
41 42
42 41
42 43
43 42
43 44
44 43
44 45
45 44
45 46
46 45
46 47
46 108
47 46
47 48
48 47
48 49
49 48
49 50
50 49
50 51
51 50
51 52
52 51
52 53
53 52
53 54
54 53
54 55
55 54
55 56
56 55
56 57
57 56
57 58
58 57
58 59
59 58
59 60
60 59
60 61
61 60
61 62
62 61
62 63
63 62
63 64
64 63
64 65
65 64
65 66
66 65
66 67
67 66
67 68
68 67
68 69
69 68
69 70
70 69
70 71
71 70
71 72
72 71
72 73
73 72
73 74
74 73
74 75
75 74
75 76
76 75
76 77
77 76
77 78
78 77
78 79
79 78
79 80
80 79
80 81
81 80
81 82
82 81
82 83
83 82
83 84
84 83
84 85
85 84
85 86
86 85
86 87
87 86
87 88
88 87
88 89
89 88
89 90
90 89
90 91
91 90
91 92
92 91
92 93
93 92
93 94
94 93
94 95
95 94
95 96
96 95
96 97
97 96
97 98
98 97
98 99
99 98
99 100
100 99
100 101
101 100
101 102
102 101
102 103
103 102
103 104
104 103
104 105
105 104
105 106
106 105
106 107
107 106
108 46
108 109
109 108
109 110
110 109
110 111
111 110
111 112
112 111
112 113
113 112
113 114
114 113
114 115
115 114
115 116
116 115
116 117
117 116
117 118
118 117
118 119
119 118
119 120
120 119
120 121
121 120
121 122
122 121
122 123
123 122
123 124
124 123
124 125
125 124
125 126
126 125
126 127
127 126
127 128
128 127
128 129
129 128
129 130
130 129
130 131
131 130
131 132
132 131
132 133
133 132
133 134
134 133
134 135
135 134
135 136
136 135
136 137
137 136
137 138
138 137
138 139
139 138
139 140
140 139
140 141
141 140
141 142
142 141
142 143
143 142
143 144
143 160
144 143
144 145
145 144
145 146
146 145
146 147
147 146
147 148
148 147
148 149
149 148
149 150
150 149
150 151
151 150
151 152
152 151
152 153
153 152
153 154
154 153
154 155
155 154
155 156
156 155
156 157
157 156
157 158
158 157
158 159
159 158
160 143
160 161
161 160
161 162
162 161
162 163
163 162
163 164
164 163
164 165
165 164
165 166
166 165
166 167
167 166
167 168
168 167
168 169
169 168
169 170
170 169
170 171
171 170
171 172
172 171
172 173
173 172
173 174
174 173
174 175
175 174
175 176
176 175
176 177
177 176
177 178
178 177
178 179
179 178
180 30
180 181
181 180
181 182
182 181
182 183
183 182
183 184
184 183
184 185
185 184
185 186
186 185
186 187
187 186
187 188
188 187
188 189
189 188
189 190
190 189
190 191
191 190
192 13
192 193
193 192
193 194
194 193
194 195
195 194
195 196
196 195
196 197
197 196
197 198
198 197
198 199
199 198
199 200
200 199
200 201
201 200
201 202
202 201
202 203
203 202
203 204
204 203
204 205
205 204
205 206
206 205
206 207
207 206
207 208
208 207
208 209
209 208
209 210
210 209
210 211
211 210
211 212
212 211
212 213
213 212
213 214
214 213
214 215
215 214
215 216
216 215
216 217
217 216
217 218
218 217
218 219
219 218
219 220
220 219
220 221
221 220
221 222
222 221
222 223
223 222
223 224
224 223
224 225
225 224
225 226
226 225
226 227
227 226
227 228
228 227
228 229
229 228
229 230
230 229
230 231
231 230
231 232
232 231
232 233
233 232
233 234
234 233
234 235
235 234
235 236
236 235
236 237
237 236
237 238
238 237
238 239
239 238
239 240
240 239
240 241
241 240
241 242
242 241
242 243
243 242
243 244
244 243
244 245
245 244
245 246
246 245
246 247
247 246
247 248
248 247
248 249
249 248
249 250
250 249
250 251
251 250
251 252
252 251
252 253
253 252
253 254
253 287
254 253
254 255
255 254
255 256
256 255
256 257
257 256
257 258
258 257
258 259
259 258
259 260
260 259
260 261
261 260
261 262
262 261
262 263
263 262
263 264
264 263
264 265
265 264
265 266
266 265
266 267
267 266
267 268
268 267
268 269
269 268
269 270
270 269
270 271
271 270
271 272
272 271
272 273
273 272
273 274
274 273
274 275
275 274
275 276
276 275
276 277
277 276
277 278
278 277
278 279
279 278
279 280
280 279
280 281
281 280
281 282
282 281
282 283
283 282
283 284
284 283
284 285
285 284
285 286
286 285
287 253
287 288
288 287
288 289
289 288
289 290
290 289
290 291
291 290
291 292
292 291
292 293
293 292
293 294
294 293
294 295
295 294
295 296
296 295
296 297
297 296
297 298
298 297
298 299
299 298
299 300
300 299
300 301
301 300
301 302
302 301
302 303
303 302
303 304
304 303
304 305
305 304
305 306
306 305
306 307
307 306
307 308
308 307
308 309
309 308
309 310
310 309
310 311
311 310
311 312
312 311
312 313
313 312
313 314
314 313
314 315
315 314
315 316
316 315
316 317
317 316
317 318
318 317
318 319
319 318
319 320
320 319
320 321
321 320
        </DataArray>
        <DataArray type="Int64" Name="offsets" format="ascii">
     2 
     4 
     6 
     8 
     10 
     12 
     14 
     16 
     18 
     20 
     22 
     24 
     26 
     28 
     30 
     32 
     34 
     36 
     38 
     40 
     42 
     44 
     46 
     48 
     50 
     52 
     54 
     56 
     58 
     60 
     62 
     64 
     66 
     68 
     70 
     72 
     74 
     76 
     78 
     80 
     82 
     84 
     86 
     88 
     90 
     92 
     94 
     96 
     98 
     100 
     102 
     104 
     106 
     108 
     110 
     112 
     114 
     116 
     118 
     120 
     122 
     124 
     126 
     128 
     130 
     132 
     134 
     136 
     138 
     140 
     142 
     144 
     146 
     148 
     150 
     152 
     154 
     156 
     158 
     160 
     162 
     164 
     166 
     168 
     170 
     172 
     174 
     176 
     178 
     180 
     182 
     184 
     186 
     188 
     190 
     192 
     194 
     196 
     198 
     200 
     202 
     204 
     206 
     208 
     210 
     212 
     214 
     216 
     218 
     220 
     222 
     224 
     226 
     228 
     230 
     232 
     234 
     236 
     238 
     240 
     242 
     244 
     246 
     248 
     250 
     252 
     254 
     256 
     258 
     260 
     262 
     264 
     266 
     268 
     270 
     272 
     274 
     276 
     278 
     280 
     282 
     284 
     286 
     288 
     290 
     292 
     294 
     296 
     298 
     300 
     302 
     304 
     306 
     308 
     310 
     312 
     314 
     316 
     318 
     320 
     322 
     324 
     326 
     328 
     330 
     332 
     334 
     336 
     338 
     340 
     342 
     344 
     346 
     348 
     350 
     352 
     354 
     356 
     358 
     360 
     362 
     364 
     366 
     368 
     370 
     372 
     374 
     376 
     378 
     380 
     382 
     384 
     386 
     388 
     390 
     392 
     394 
     396 
     398 
     400 
     402 
     404 
     406 
     408 
     410 
     412 
     414 
     416 
     418 
     420 
     422 
     424 
     426 
     428 
     430 
     432 
     434 
     436 
     438 
     440 
     442 
     444 
     446 
     448 
     450 
     452 
     454 
     456 
     458 
     460 
     462 
     464 
     466 
     468 
     470 
     472 
     474 
     476 
     478 
     480 
     482 
     484 
     486 
     488 
     490 
     492 
     494 
     496 
     498 
     500 
     502 
     504 
     506 
     508 
     510 
     512 
     514 
     516 
     518 
     520 
     522 
     524 
     526 
     528 
     530 
     532 
     534 
     536 
     538 
     540 
     542 
     544 
     546 
     548 
     550 
     552 
     554 
     556 
     558 
     560 
     562 
     564 
     566 
     568 
     570 
     572 
     574 
     576 
     578 
     580 
     582 
     584 
     586 
     588 
     590 
     592 
     594 
     596 
     598 
     600 
     602 
     604 
     606 
     608 
     610 
     612 
     614 
     616 
     618 
     620 
     622 
     624 
     626 
     628 
     630 
     632 
     634 
     636 
     638 
     640 
     642 
     644 
     646 
     648 
     650 
     652 
     654 
     656 
     658 
     660 
     662 
     664 
     666 
     668 
     670 
     672 
     674 
     676 
     678 
     680 
     682 
     684 
     686 
     688 
     690 
     692 
     694 
     696 
     698 
     700 
     702 
     704 
     706 
     708 
     710 
     712 
     714 
     716 
     718 
     720 
     722 
     724 
     726 
     728 
     730 
     732 
     734 
     736 
     738 
     740 
     742 
     744 
     746 
     748 
     750 
     752 
     754 
     756 
     758 
     760 
     762 
     764 
     766 
     768 
     770 
     772 
     774 
     776 
     778 
     780 
     782 
     784 
     786 
     788 
     790 
     792 
     794 
     796 
     798 
     800 
     802 
     804 
     806 
     808 
     810 
     812 
     814 
     816 
     818 
     820 
     822 
     824 
     826 
     828 
     830 
     832 
     834 
     836 
     838 
     840 
     842 
     844 
     846 
     848 
     850 
     852 
     854 
     856 
     858 
     860 
     862 
     864 
     866 
     868 
     870 
     872 
     874 
     876 
     878 
     880 
     882 
     884 
     886 
     888 
     890 
     892 
     894 
     896 
     898 
     900 
     902 
     904 
     906 
     908 
     910 
     912 
     914 
     916 
     918 
     920 
     922 
     924 
     926 
     928 
     930 
     932 
     934 
     936 
     938 
     940 
     942 
     944 
     946 
     948 
     950 
     952 
     954 
     956 
     958 
     960 
     962 
     964 
     966 
     968 
     970 
     972 
     974 
     976 
     978 
     980 
     982 
     984 
     986 
     988 
     990 
     992 
     994 
     996 
     998 
     1000 
     1002 
     1004 
     1006 
     1008 
     1010 
     1012 
     1014 
     1016 
     1018 
     1020 
     1022 
     1024 
     1026 
     1028 
     1030 
     1032 
     1034 
     1036 
     1038 
     1040 
     1042 
     1044 
     1046 
     1048 
     1050 
     1052 
     1054 
     1056 
     1058 
     1060 
     1062 
     1064 
     1066 
     1068 
     1070 
     1072 
     1074 
     1076 
     1078 
     1080 
     1082 
     1084 
     1086 
     1088 
     1090 
     1092 
     1094 
     1096 
     1098 
     1100 
     1102 
     1104 
     1106 
     1108 
     1110 
     1112 
     1114 
     1116 
     1118 
     1120 
     1122 
     1124 
     1126 
     1128 
     1130 
     1132 
     1134 
     1136 
     1138 
     1140 
     1142 
     1144 
     1146 
     1148 
     1150 
     1152 
     1154 
     1156 
     1158 
     1160 
     1162 
     1164 
     1166 
     1168 
     1170 
     1172 
     1174 
     1176 
     1178 
     1180 
     1182 
     1184 
     1186 
     1188 
     1190 
     1192 
     1194 
     1196 
     1198 
     1200 
     1202 
     1204 
     1206 
     1208 
     1210 
     1212 
     1214 
     1216 
     1218 
     1220 
     1222 
     1224 
     1226 
     1228 
     1230 
     1232 
     1234 
     1236 
     1238 
     1240 
     1242 
     1244 
     1246 
     1248 
     1250 
     1252 
     1254 
     1256 
     1258 
     1260 
     1262 
     1264 
     1266 
     1268 
     1270 
     1272 
     1274 
     1276 
     1278 
     1280 
     1282 
     1284 
        </DataArray>
      </Lines>
    </Piece>
  </PolyData>
</VTKFile>
