<VTKFile type="PolyData" version="1.0" byte_order="LittleEndian" header_type="UInt64">
  <PolyData>
    <Piece NumberOfPoints="383" NumberOfLines="764">
      <PointData Scalars="Scalars_">
        <DataArray type="Float32" Name="Scalars_" format="ascii">
     95.320000      95.379997      95.459999      0.660000      0.860000      1.060000      1.260000      1.460000      1.660000      1.860000      2.060000      2.260000      2.460000      2.660000      2.860000      3.060000      3.260000      3.460000      3.660000      3.860000      4.060000      4.260000      4.460000      4.660000      4.860000      5.080000      5.280000      5.480000      5.680000      5.880000      6.080000      6.280000      6.480000      6.680000      6.880000      7.080000      7.280000      7.480000      7.680000      7.880000      8.080000      8.280000      8.480000      8.679999      8.880000      9.099999      9.300000      9.500000      9.700000      9.900000      10.099999      10.300000      10.500000      10.700000      10.900000      11.099999      11.300000      11.500000      11.700000      11.900000      12.099999      12.300000      12.500000      12.700000      12.900000      13.120000      13.320000      13.520000      13.719999      13.920000      14.120000      14.320000      14.520000      14.719999      14.920000      15.120000      15.320000      15.520000      15.719999      15.920000      16.119999      16.320000      16.520000      16.719999      16.920000      17.119999      17.340000      17.539999      17.740000      17.940001      18.139999      18.340000      18.539999      18.740000      18.939999      19.139999      19.340000      19.539999      19.740000      19.939999      20.160000      20.420000      20.719999      20.920000      21.119999      21.320000      21.520000      21.719999      21.920000      22.119999      22.320000      22.519999      22.719999      22.920000      23.119999      23.320000      23.519999      23.719999      23.920000      24.119999      24.340000      24.539999      24.740000      24.939999      25.139999      25.340000      25.539999      25.740000      25.939999      26.139999      26.340000      26.539999      26.740000      26.939999      27.139999      27.340000      27.539999      27.740000      27.939999      28.139999      28.340000      28.559999      28.760000      28.959999      29.160000      29.359999      29.559999      29.760000      29.959999      30.160000      30.359999      30.559999      30.760000      30.959999      31.160000      31.359999      31.559999      31.760000      31.959999      32.160000      32.360001      32.579998      32.779999      32.980000      33.180000      33.380001      33.579998      33.779999      33.980000      34.180000      34.380001      34.579998      34.779999      34.980000      35.180000      35.380001      35.579998      35.779999      35.980000      36.180000      36.380001      36.579998      36.799999      37.000000      37.200001      37.399998      37.599998      37.799999      38.000000      38.200001      38.399998      38.599998      38.799999      39.000000      39.200001      39.399998      39.599998      39.799999      40.000000      40.200001      40.399998      40.599998      40.820000      41.020000      41.219997      41.419998      41.619999      41.820000      42.020000      42.219997      42.419998      42.619999      42.820000      43.020000      43.219997      43.419998      43.619999      43.820000      44.020000      44.219997      44.419998      44.619999      44.820000      45.039997      45.239998      45.439999      45.639999      45.840000      46.039997      46.239998      46.439999      46.639999      46.840000      47.039997      47.239998      47.439999      47.639999      47.840000      48.039997      48.239998      48.439999      48.639999      20.420000      20.719999      20.920000      21.119999      21.320000      21.520000      21.719999      21.920000      22.119999      22.320000      22.519999      22.719999      22.920000      23.119999      23.320000      23.519999      23.719999      23.920000      24.119999      24.340000      24.539999      24.740000      24.939999      25.139999      25.340000      25.539999      25.740000      25.939999      26.139999      26.340000      26.539999      26.740000      26.939999      27.139999      27.340000      27.539999      27.740000      27.939999      28.139999      28.340000      28.559999      28.760000      28.959999      29.160000      29.359999      29.559999      29.760000      29.959999      30.160000      30.359999      30.559999      30.760000      30.959999      31.160000      31.359999      31.559999      31.760000      31.959999      32.160000      32.360001      32.579998      32.779999      32.980000      33.180000      33.380001      33.579998      33.779999      33.980000      34.180000      34.380001      34.579998      34.779999      34.980000      35.180000      35.380001      35.579998      35.779999      35.980000      36.180000      36.380001      36.579998      36.799999      37.000000      37.200001      37.399998      37.599998      37.799999      38.000000      38.200001      38.399998      38.599998      38.799999      39.000000      39.200001      39.399998      39.599998      39.799999      40.000000      40.200001      40.399998      40.599998      40.820000      41.020000      41.219997      41.419998      41.619999      41.820000      42.020000      42.219997      42.419998      42.619999      42.820000      43.020000      43.219997      43.419998      43.619999      43.820000      44.020000      44.219997      44.419998      44.619999      44.820000      45.039997      45.239998      45.439999      45.639999      45.840000      46.039997      46.239998      46.439999      46.639999      46.840000      47.039997      47.239998      47.439999      47.639999      47.840000      48.039997      48.239998      48.439999      48.639999         </DataArray>
      </PointData>
      <Points>
        <DataArray type="Float32" Name="Points" NumberOfComponents="3" format="ascii">
0.000000 0.000000 0.000000
0.010000 0.000000 0.000000
0.020000 0.000000 0.000000
0.030000 0.000000 0.000000
0.040000 0.000000 0.000000
0.050000 0.000000 0.000000
0.060000 0.000000 0.000000
0.070000 0.000000 0.000000
0.080000 0.000000 0.000000
0.090000 0.000000 0.000000
0.100000 0.000000 0.000000
0.110000 0.000000 0.000000
0.120000 0.000000 0.000000
0.130000 0.000000 0.000000
0.140000 0.000000 0.000000
0.150000 0.000000 0.000000
0.160000 0.000000 0.000000
0.170000 0.000000 0.000000
0.180000 0.000000 0.000000
0.190000 0.000000 0.000000
0.200000 0.000000 0.000000
0.210000 0.000000 0.000000
0.220000 0.000000 0.000000
0.230000 0.000000 0.000000
0.240000 0.000000 0.000000
0.250000 0.000000 0.000000
0.260000 0.000000 0.000000
0.270000 0.000000 0.000000
0.280000 0.000000 0.000000
0.290000 0.000000 0.000000
0.300000 0.000000 0.000000
0.310000 0.000000 0.000000
0.320000 0.000000 0.000000
0.330000 0.000000 0.000000
0.340000 0.000000 0.000000
0.350000 0.000000 0.000000
0.360000 0.000000 0.000000
0.370000 0.000000 0.000000
0.380000 0.000000 0.000000
0.390000 0.000000 0.000000
0.400000 0.000000 0.000000
0.410000 0.000000 0.000000
0.420000 0.000000 0.000000
0.430000 0.000000 0.000000
0.440000 0.000000 0.000000
0.450000 0.000000 0.000000
0.460000 0.000000 0.000000
0.470000 0.000000 0.000000
0.480000 0.000000 0.000000
0.490000 0.000000 0.000000
0.500000 0.000000 0.000000
0.510000 0.000000 0.000000
0.520000 0.000000 0.000000
0.530000 0.000000 0.000000
0.540000 0.000000 0.000000
0.550000 0.000000 0.000000
0.560000 0.000000 0.000000
0.570000 0.000000 0.000000
0.580000 0.000000 0.000000
0.590000 0.000000 0.000000
0.600000 0.000000 0.000000
0.610000 0.000000 0.000000
0.620000 0.000000 0.000000
0.630000 0.000000 0.000000
0.640000 0.000000 0.000000
0.650000 0.000000 0.000000
0.660000 0.000000 0.000000
0.670000 0.000000 0.000000
0.680000 0.000000 0.000000
0.690000 0.000000 0.000000
0.700000 0.000000 0.000000
0.710000 0.000000 0.000000
0.720000 0.000000 0.000000
0.730000 0.000000 0.000000
0.740000 0.000000 0.000000
0.750000 0.000000 0.000000
0.760000 0.000000 0.000000
0.770000 0.000000 0.000000
0.780000 0.000000 0.000000
0.790000 0.000000 0.000000
0.800000 0.000000 0.000000
0.810000 0.000000 0.000000
0.820000 0.000000 0.000000
0.830000 0.000000 0.000000
0.840000 0.000000 0.000000
0.850000 0.000000 0.000000
0.860000 0.000000 0.000000
0.870000 0.000000 0.000000
0.880000 0.000000 0.000000
0.890000 0.000000 0.000000
0.900000 0.000000 0.000000
0.910000 0.000000 0.000000
0.920000 0.000000 0.000000
0.930000 0.000000 0.000000
0.940000 0.000000 0.000000
0.950000 0.000000 0.000000
0.960000 0.000000 0.000000
0.970000 0.000000 0.000000
0.980000 0.000000 0.000000
0.990000 0.000000 0.000000
1.000000 0.000000 0.000000
1.007071 0.007071 0.000000
1.014142 0.014142 0.000000
1.021213 0.021213 0.000000
1.028284 0.028284 0.000000
1.035355 0.035355 0.000000
1.042426 0.042426 0.000000
1.049497 0.049497 0.000000
1.056569 0.056569 0.000000
1.063640 0.063640 0.000000
1.070711 0.070711 0.000000
1.077782 0.077782 0.000000
1.084853 0.084853 0.000000
1.091924 0.091924 0.000000
1.098995 0.098995 0.000000
1.106066 0.106066 0.000000
1.113137 0.113137 0.000000
1.120208 0.120208 0.000000
1.127279 0.127279 0.000000
1.134350 0.134350 0.000000
1.141421 0.141421 0.000000
1.148492 0.148492 0.000000
1.155563 0.155563 0.000000
1.162635 0.162635 0.000000
1.169706 0.169706 0.000000
1.176777 0.176777 0.000000
1.183848 0.183848 0.000000
1.190919 0.190919 0.000000
1.197990 0.197990 0.000000
1.205061 0.205061 0.000000
1.212132 0.212132 0.000000
1.219203 0.219203 0.000000
1.226274 0.226274 0.000000
1.233345 0.233345 0.000000
1.240416 0.240416 0.000000
1.247487 0.247487 0.000000
1.254558 0.254558 0.000000
1.261629 0.261630 0.000000
1.268701 0.268701 0.000000
1.275772 0.275772 0.000000
1.282843 0.282843 0.000000
1.289914 0.289914 0.000000
1.296985 0.296985 0.000000
1.304056 0.304056 0.000000
1.311127 0.311127 0.000000
1.318198 0.318198 0.000000
1.325269 0.325269 0.000000
1.332340 0.332340 0.000000
1.339411 0.339411 0.000000
1.346482 0.346482 0.000000
1.353553 0.353553 0.000000
1.360624 0.360624 0.000000
1.367696 0.367696 0.000000
1.374767 0.374767 0.000000
1.381838 0.381838 0.000000
1.388909 0.388909 0.000000
1.395980 0.395980 0.000000
1.403051 0.403051 0.000000
1.410122 0.410122 0.000000
1.417193 0.417193 0.000000
1.424264 0.424264 0.000000
1.431335 0.431335 0.000000
1.438406 0.438406 0.000000
1.445477 0.445477 0.000000
1.452548 0.452548 0.000000
1.459619 0.459619 0.000000
1.466690 0.466690 0.000000
1.473762 0.473762 0.000000
1.480833 0.480833 0.000000
1.487904 0.487904 0.000000
1.494975 0.494975 0.000000
1.502046 0.502046 0.000000
1.509117 0.509117 0.000000
1.516188 0.516188 0.000000
1.523259 0.523259 0.000000
1.530330 0.530330 0.000000
1.537401 0.537401 0.000000
1.544472 0.544472 0.000000
1.551543 0.551543 0.000000
1.558614 0.558614 0.000000
1.565685 0.565685 0.000000
1.572757 0.572756 0.000000
1.579828 0.579828 0.000000
1.586899 0.586899 0.000000
1.593970 0.593970 0.000000
1.601041 0.601041 0.000000
1.608112 0.608112 0.000000
1.615183 0.615183 0.000000
1.622254 0.622254 0.000000
1.629325 0.629325 0.000000
1.636396 0.636396 0.000000
1.643467 0.643467 0.000000
1.650538 0.650538 0.000000
1.657609 0.657609 0.000000
1.664680 0.664680 0.000000
1.671751 0.671751 0.000000
1.678823 0.678823 0.000000
1.685894 0.685894 0.000000
1.692965 0.692965 0.000000
1.700036 0.700036 0.000000
1.707107 0.707107 0.000000
1.714178 0.714178 0.000000
1.721249 0.721249 0.000000
1.728320 0.728320 0.000000
1.735391 0.735391 0.000000
1.742462 0.742462 0.000000
1.749533 0.749533 0.000000
1.756604 0.756604 0.000000
1.763675 0.763675 0.000000
1.770746 0.770746 0.000000
1.777817 0.777817 0.000000
1.784889 0.784889 0.000000
1.791960 0.791960 0.000000
1.799031 0.799031 0.000000
1.806102 0.806102 0.000000
1.813173 0.813173 0.000000
1.820244 0.820244 0.000000
1.827315 0.827315 0.000000
1.834386 0.834386 0.000000
1.841457 0.841457 0.000000
1.848528 0.848528 0.000000
1.855599 0.855599 0.000000
1.862670 0.862670 0.000000
1.869741 0.869741 0.000000
1.876812 0.876812 0.000000
1.883883 0.883883 0.000000
1.890954 0.890955 0.000000
1.898026 0.898026 0.000000
1.905097 0.905097 0.000000
1.912168 0.912168 0.000000
1.919239 0.919239 0.000000
1.926310 0.926310 0.000000
1.933381 0.933381 0.000000
1.940452 0.940452 0.000000
1.947523 0.947523 0.000000
1.954594 0.954594 0.000000
1.961665 0.961665 0.000000
1.968736 0.968736 0.000000
1.975807 0.975807 0.000000
1.982878 0.982878 0.000000
1.989949 0.989949 0.000000
1.997021 0.997021 0.000000
1.007071 -0.007071 0.000000
1.014142 -0.014142 0.000000
1.021213 -0.021213 0.000000
1.028284 -0.028284 0.000000
1.035355 -0.035355 0.000000
1.042426 -0.042426 0.000000
1.049497 -0.049497 0.000000
1.056569 -0.056569 0.000000
1.063640 -0.063640 0.000000
1.070711 -0.070711 0.000000
1.077782 -0.077782 0.000000
1.084853 -0.084853 0.000000
1.091924 -0.091924 0.000000
1.098995 -0.098995 0.000000
1.106066 -0.106066 0.000000
1.113137 -0.113137 0.000000
1.120208 -0.120208 0.000000
1.127279 -0.127279 0.000000
1.134350 -0.134350 0.000000
1.141421 -0.141421 0.000000
1.148492 -0.148492 0.000000
1.155563 -0.155563 0.000000
1.162635 -0.162635 0.000000
1.169706 -0.169706 0.000000
1.176777 -0.176777 0.000000
1.183848 -0.183848 0.000000
1.190919 -0.190919 0.000000
1.197990 -0.197990 0.000000
1.205061 -0.205061 0.000000
1.212132 -0.212132 0.000000
1.219203 -0.219203 0.000000
1.226274 -0.226274 0.000000
1.233345 -0.233345 0.000000
1.240416 -0.240416 0.000000
1.247487 -0.247487 0.000000
1.254558 -0.254558 0.000000
1.261629 -0.261630 0.000000
1.268701 -0.268701 0.000000
1.275772 -0.275772 0.000000
1.282843 -0.282843 0.000000
1.289914 -0.289914 0.000000
1.296985 -0.296985 0.000000
1.304056 -0.304056 0.000000
1.311127 -0.311127 0.000000
1.318198 -0.318198 0.000000
1.325269 -0.325269 0.000000
1.332340 -0.332340 0.000000
1.339411 -0.339411 0.000000
1.346482 -0.346482 0.000000
1.353553 -0.353553 0.000000
1.360624 -0.360624 0.000000
1.367696 -0.367696 0.000000
1.374767 -0.374767 0.000000
1.381838 -0.381838 0.000000
1.388909 -0.388909 0.000000
1.395980 -0.395980 0.000000
1.403051 -0.403051 0.000000
1.410122 -0.410122 0.000000
1.417193 -0.417193 0.000000
1.424264 -0.424264 0.000000
1.431335 -0.431335 0.000000
1.438406 -0.438406 0.000000
1.445477 -0.445477 0.000000
1.452548 -0.452548 0.000000
1.459619 -0.459619 0.000000
1.466690 -0.466690 0.000000
1.473762 -0.473762 0.000000
1.480833 -0.480833 0.000000
1.487904 -0.487904 0.000000
1.494975 -0.494975 0.000000
1.502046 -0.502046 0.000000
1.509117 -0.509117 0.000000
1.516188 -0.516188 0.000000
1.523259 -0.523259 0.000000
1.530330 -0.530330 0.000000
1.537401 -0.537401 0.000000
1.544472 -0.544472 0.000000
1.551543 -0.551543 0.000000
1.558614 -0.558614 0.000000
1.565685 -0.565685 0.000000
1.572757 -0.572756 0.000000
1.579828 -0.579828 0.000000
1.586899 -0.586899 0.000000
1.593970 -0.593970 0.000000
1.601041 -0.601041 0.000000
1.608112 -0.608112 0.000000
1.615183 -0.615183 0.000000
1.622254 -0.622254 0.000000
1.629325 -0.629325 0.000000
1.636396 -0.636396 0.000000
1.643467 -0.643467 0.000000
1.650538 -0.650538 0.000000
1.657609 -0.657609 0.000000
1.664680 -0.664680 0.000000
1.671751 -0.671751 0.000000
1.678823 -0.678823 0.000000
1.685894 -0.685894 0.000000
1.692965 -0.692965 0.000000
1.700036 -0.700036 0.000000
1.707107 -0.707107 0.000000
1.714178 -0.714178 0.000000
1.721249 -0.721249 0.000000
1.728320 -0.728320 0.000000
1.735391 -0.735391 0.000000
1.742462 -0.742462 0.000000
1.749533 -0.749533 0.000000
1.756604 -0.756604 0.000000
1.763675 -0.763675 0.000000
1.770746 -0.770746 0.000000
1.777817 -0.777817 0.000000
1.784889 -0.784889 0.000000
1.791960 -0.791960 0.000000
1.799031 -0.799031 0.000000
1.806102 -0.806102 0.000000
1.813173 -0.813173 0.000000
1.820244 -0.820244 0.000000
1.827315 -0.827315 0.000000
1.834386 -0.834386 0.000000
1.841457 -0.841457 0.000000
1.848528 -0.848528 0.000000
1.855599 -0.855599 0.000000
1.862670 -0.862670 0.000000
1.869741 -0.869741 0.000000
1.876812 -0.876812 0.000000
1.883883 -0.883883 0.000000
1.890954 -0.890955 0.000000
1.898026 -0.898026 0.000000
1.905097 -0.905097 0.000000
1.912168 -0.912168 0.000000
1.919239 -0.919239 0.000000
1.926310 -0.926310 0.000000
1.933381 -0.933381 0.000000
1.940452 -0.940452 0.000000
1.947523 -0.947523 0.000000
1.954594 -0.954594 0.000000
1.961665 -0.961665 0.000000
1.968736 -0.968736 0.000000
1.975807 -0.975807 0.000000
1.982878 -0.982878 0.000000
1.989949 -0.989949 0.000000
1.997021 -0.997021 0.000000
        </DataArray>
      </Points>
      <Lines>
        <DataArray type="Int64" Name="connectivity" format="ascii">
0 1
1 0
1 2
2 1
2 3
3 2
3 4
4 3
4 5
5 4
5 6
6 5
6 7
7 6
7 8
8 7
8 9
9 8
9 10
10 9
10 11
11 10
11 12
12 11
12 13
13 12
13 14
14 13
14 15
15 14
15 16
16 15
16 17
17 16
17 18
18 17
18 19
19 18
19 20
20 19
20 21
21 20
21 22
22 21
22 23
23 22
23 24
24 23
24 25
25 24
25 26
26 25
26 27
27 26
27 28
28 27
28 29
29 28
29 30
30 29
30 31
31 30
31 32
32 31
32 33
33 32
33 34
34 33
34 35
35 34
35 36
36 35
36 37
37 36
37 38
38 37
38 39
39 38
39 40
40 39
40 41
41 40
41 42
42 41
42 43
43 42
43 44
44 43
44 45
45 44
45 46
46 45
46 47
47 46
47 48
48 47
48 49
49 48
49 50
50 49
50 51
51 50
51 52
52 51
52 53
53 52
53 54
54 53
54 55
55 54
55 56
56 55
56 57
57 56
57 58
58 57
58 59
59 58
59 60
60 59
60 61
61 60
61 62
62 61
62 63
63 62
63 64
64 63
64 65
65 64
65 66
66 65
66 67
67 66
67 68
68 67
68 69
69 68
69 70
70 69
70 71
71 70
71 72
72 71
72 73
73 72
73 74
74 73
74 75
75 74
75 76
76 75
76 77
77 76
77 78
78 77
78 79
79 78
79 80
80 79
80 81
81 80
81 82
82 81
82 83
83 82
83 84
84 83
84 85
85 84
85 86
86 85
86 87
87 86
87 88
88 87
88 89
89 88
89 90
90 89
90 91
91 90
91 92
92 91
92 93
93 92
93 94
94 93
94 95
95 94
95 96
96 95
96 97
97 96
97 98
98 97
98 99
99 98
99 100
100 99
100 101
100 242
101 100
101 102
102 101
102 103
103 102
103 104
104 103
104 105
105 104
105 106
106 105
106 107
107 106
107 108
108 107
108 109
109 108
109 110
110 109
110 111
111 110
111 112
112 111
112 113
113 112
113 114
114 113
114 115
115 114
115 116
116 115
116 117
117 116
117 118
118 117
118 119
119 118
119 120
120 119
120 121
121 120
121 122
122 121
122 123
123 122
123 124
124 123
124 125
125 124
125 126
126 125
126 127
127 126
127 128
128 127
128 129
129 128
129 130
130 129
130 131
131 130
131 132
132 131
132 133
133 132
133 134
134 133
134 135
135 134
135 136
136 135
136 137
137 136
137 138
138 137
138 139
139 138
139 140
140 139
140 141
141 140
141 142
142 141
142 143
143 142
143 144
144 143
144 145
145 144
145 146
146 145
146 147
147 146
147 148
148 147
148 149
149 148
149 150
150 149
150 151
151 150
151 152
152 151
152 153
153 152
153 154
154 153
154 155
155 154
155 156
156 155
156 157
157 156
157 158
158 157
158 159
159 158
159 160
160 159
160 161
161 160
161 162
162 161
162 163
163 162
163 164
164 163
164 165
165 164
165 166
166 165
166 167
167 166
167 168
168 167
168 169
169 168
169 170
170 169
170 171
171 170
171 172
172 171
172 173
173 172
173 174
174 173
174 175
175 174
175 176
176 175
176 177
177 176
177 178
178 177
178 179
179 178
179 180
180 179
180 181
181 180
181 182
182 181
182 183
183 182
183 184
184 183
184 185
185 184
185 186
186 185
186 187
187 186
187 188
188 187
188 189
189 188
189 190
190 189
190 191
191 190
191 192
192 191
192 193
193 192
193 194
194 193
194 195
195 194
195 196
196 195
196 197
197 196
197 198
198 197
198 199
199 198
199 200
200 199
200 201
201 200
201 202
202 201
202 203
203 202
203 204
204 203
204 205
205 204
205 206
206 205
206 207
207 206
207 208
208 207
208 209
209 208
209 210
210 209
210 211
211 210
211 212
212 211
212 213
213 212
213 214
214 213
214 215
215 214
215 216
216 215
216 217
217 216
217 218
218 217
218 219
219 218
219 220
220 219
220 221
221 220
221 222
222 221
222 223
223 222
223 224
224 223
224 225
225 224
225 226
226 225
226 227
227 226
227 228
228 227
228 229
229 228
229 230
230 229
230 231
231 230
231 232
232 231
232 233
233 232
233 234
234 233
234 235
235 234
235 236
236 235
236 237
237 236
237 238
238 237
238 239
239 238
239 240
240 239
240 241
241 240
242 100
242 243
243 242
243 244
244 243
244 245
245 244
245 246
246 245
246 247
247 246
247 248
248 247
248 249
249 248
249 250
250 249
250 251
251 250
251 252
252 251
252 253
253 252
253 254
254 253
254 255
255 254
255 256
256 255
256 257
257 256
257 258
258 257
258 259
259 258
259 260
260 259
260 261
261 260
261 262
262 261
262 263
263 262
263 264
264 263
264 265
265 264
265 266
266 265
266 267
267 266
267 268
268 267
268 269
269 268
269 270
270 269
270 271
271 270
271 272
272 271
272 273
273 272
273 274
274 273
274 275
275 274
275 276
276 275
276 277
277 276
277 278
278 277
278 279
279 278
279 280
280 279
280 281
281 280
281 282
282 281
282 283
283 282
283 284
284 283
284 285
285 284
285 286
286 285
286 287
287 286
287 288
288 287
288 289
289 288
289 290
290 289
290 291
291 290
291 292
292 291
292 293
293 292
293 294
294 293
294 295
295 294
295 296
296 295
296 297
297 296
297 298
298 297
298 299
299 298
299 300
300 299
300 301
301 300
301 302
302 301
302 303
303 302
303 304
304 303
304 305
305 304
305 306
306 305
306 307
307 306
307 308
308 307
308 309
309 308
309 310
310 309
310 311
311 310
311 312
312 311
312 313
313 312
313 314
314 313
314 315
315 314
315 316
316 315
316 317
317 316
317 318
318 317
318 319
319 318
319 320
320 319
320 321
321 320
321 322
322 321
322 323
323 322
323 324
324 323
324 325
325 324
325 326
326 325
326 327
327 326
327 328
328 327
328 329
329 328
329 330
330 329
330 331
331 330
331 332
332 331
332 333
333 332
333 334
334 333
334 335
335 334
335 336
336 335
336 337
337 336
337 338
338 337
338 339
339 338
339 340
340 339
340 341
341 340
341 342
342 341
342 343
343 342
343 344
344 343
344 345
345 344
345 346
346 345
346 347
347 346
347 348
348 347
348 349
349 348
349 350
350 349
350 351
351 350
351 352
352 351
352 353
353 352
353 354
354 353
354 355
355 354
355 356
356 355
356 357
357 356
357 358
358 357
358 359
359 358
359 360
360 359
360 361
361 360
361 362
362 361
362 363
363 362
363 364
364 363
364 365
365 364
365 366
366 365
366 367
367 366
367 368
368 367
368 369
369 368
369 370
370 369
370 371
371 370
371 372
372 371
372 373
373 372
373 374
374 373
374 375
375 374
375 376
376 375
376 377
377 376
377 378
378 377
378 379
379 378
379 380
380 379
380 381
381 380
381 382
382 381
        </DataArray>
        <DataArray type="Int64" Name="offsets" format="ascii">
     2 
     4 
     6 
     8 
     10 
     12 
     14 
     16 
     18 
     20 
     22 
     24 
     26 
     28 
     30 
     32 
     34 
     36 
     38 
     40 
     42 
     44 
     46 
     48 
     50 
     52 
     54 
     56 
     58 
     60 
     62 
     64 
     66 
     68 
     70 
     72 
     74 
     76 
     78 
     80 
     82 
     84 
     86 
     88 
     90 
     92 
     94 
     96 
     98 
     100 
     102 
     104 
     106 
     108 
     110 
     112 
     114 
     116 
     118 
     120 
     122 
     124 
     126 
     128 
     130 
     132 
     134 
     136 
     138 
     140 
     142 
     144 
     146 
     148 
     150 
     152 
     154 
     156 
     158 
     160 
     162 
     164 
     166 
     168 
     170 
     172 
     174 
     176 
     178 
     180 
     182 
     184 
     186 
     188 
     190 
     192 
     194 
     196 
     198 
     200 
     202 
     204 
     206 
     208 
     210 
     212 
     214 
     216 
     218 
     220 
     222 
     224 
     226 
     228 
     230 
     232 
     234 
     236 
     238 
     240 
     242 
     244 
     246 
     248 
     250 
     252 
     254 
     256 
     258 
     260 
     262 
     264 
     266 
     268 
     270 
     272 
     274 
     276 
     278 
     280 
     282 
     284 
     286 
     288 
     290 
     292 
     294 
     296 
     298 
     300 
     302 
     304 
     306 
     308 
     310 
     312 
     314 
     316 
     318 
     320 
     322 
     324 
     326 
     328 
     330 
     332 
     334 
     336 
     338 
     340 
     342 
     344 
     346 
     348 
     350 
     352 
     354 
     356 
     358 
     360 
     362 
     364 
     366 
     368 
     370 
     372 
     374 
     376 
     378 
     380 
     382 
     384 
     386 
     388 
     390 
     392 
     394 
     396 
     398 
     400 
     402 
     404 
     406 
     408 
     410 
     412 
     414 
     416 
     418 
     420 
     422 
     424 
     426 
     428 
     430 
     432 
     434 
     436 
     438 
     440 
     442 
     444 
     446 
     448 
     450 
     452 
     454 
     456 
     458 
     460 
     462 
     464 
     466 
     468 
     470 
     472 
     474 
     476 
     478 
     480 
     482 
     484 
     486 
     488 
     490 
     492 
     494 
     496 
     498 
     500 
     502 
     504 
     506 
     508 
     510 
     512 
     514 
     516 
     518 
     520 
     522 
     524 
     526 
     528 
     530 
     532 
     534 
     536 
     538 
     540 
     542 
     544 
     546 
     548 
     550 
     552 
     554 
     556 
     558 
     560 
     562 
     564 
     566 
     568 
     570 
     572 
     574 
     576 
     578 
     580 
     582 
     584 
     586 
     588 
     590 
     592 
     594 
     596 
     598 
     600 
     602 
     604 
     606 
     608 
     610 
     612 
     614 
     616 
     618 
     620 
     622 
     624 
     626 
     628 
     630 
     632 
     634 
     636 
     638 
     640 
     642 
     644 
     646 
     648 
     650 
     652 
     654 
     656 
     658 
     660 
     662 
     664 
     666 
     668 
     670 
     672 
     674 
     676 
     678 
     680 
     682 
     684 
     686 
     688 
     690 
     692 
     694 
     696 
     698 
     700 
     702 
     704 
     706 
     708 
     710 
     712 
     714 
     716 
     718 
     720 
     722 
     724 
     726 
     728 
     730 
     732 
     734 
     736 
     738 
     740 
     742 
     744 
     746 
     748 
     750 
     752 
     754 
     756 
     758 
     760 
     762 
     764 
     766 
     768 
     770 
     772 
     774 
     776 
     778 
     780 
     782 
     784 
     786 
     788 
     790 
     792 
     794 
     796 
     798 
     800 
     802 
     804 
     806 
     808 
     810 
     812 
     814 
     816 
     818 
     820 
     822 
     824 
     826 
     828 
     830 
     832 
     834 
     836 
     838 
     840 
     842 
     844 
     846 
     848 
     850 
     852 
     854 
     856 
     858 
     860 
     862 
     864 
     866 
     868 
     870 
     872 
     874 
     876 
     878 
     880 
     882 
     884 
     886 
     888 
     890 
     892 
     894 
     896 
     898 
     900 
     902 
     904 
     906 
     908 
     910 
     912 
     914 
     916 
     918 
     920 
     922 
     924 
     926 
     928 
     930 
     932 
     934 
     936 
     938 
     940 
     942 
     944 
     946 
     948 
     950 
     952 
     954 
     956 
     958 
     960 
     962 
     964 
     966 
     968 
     970 
     972 
     974 
     976 
     978 
     980 
     982 
     984 
     986 
     988 
     990 
     992 
     994 
     996 
     998 
     1000 
     1002 
     1004 
     1006 
     1008 
     1010 
     1012 
     1014 
     1016 
     1018 
     1020 
     1022 
     1024 
     1026 
     1028 
     1030 
     1032 
     1034 
     1036 
     1038 
     1040 
     1042 
     1044 
     1046 
     1048 
     1050 
     1052 
     1054 
     1056 
     1058 
     1060 
     1062 
     1064 
     1066 
     1068 
     1070 
     1072 
     1074 
     1076 
     1078 
     1080 
     1082 
     1084 
     1086 
     1088 
     1090 
     1092 
     1094 
     1096 
     1098 
     1100 
     1102 
     1104 
     1106 
     1108 
     1110 
     1112 
     1114 
     1116 
     1118 
     1120 
     1122 
     1124 
     1126 
     1128 
     1130 
     1132 
     1134 
     1136 
     1138 
     1140 
     1142 
     1144 
     1146 
     1148 
     1150 
     1152 
     1154 
     1156 
     1158 
     1160 
     1162 
     1164 
     1166 
     1168 
     1170 
     1172 
     1174 
     1176 
     1178 
     1180 
     1182 
     1184 
     1186 
     1188 
     1190 
     1192 
     1194 
     1196 
     1198 
     1200 
     1202 
     1204 
     1206 
     1208 
     1210 
     1212 
     1214 
     1216 
     1218 
     1220 
     1222 
     1224 
     1226 
     1228 
     1230 
     1232 
     1234 
     1236 
     1238 
     1240 
     1242 
     1244 
     1246 
     1248 
     1250 
     1252 
     1254 
     1256 
     1258 
     1260 
     1262 
     1264 
     1266 
     1268 
     1270 
     1272 
     1274 
     1276 
     1278 
     1280 
     1282 
     1284 
     1286 
     1288 
     1290 
     1292 
     1294 
     1296 
     1298 
     1300 
     1302 
     1304 
     1306 
     1308 
     1310 
     1312 
     1314 
     1316 
     1318 
     1320 
     1322 
     1324 
     1326 
     1328 
     1330 
     1332 
     1334 
     1336 
     1338 
     1340 
     1342 
     1344 
     1346 
     1348 
     1350 
     1352 
     1354 
     1356 
     1358 
     1360 
     1362 
     1364 
     1366 
     1368 
     1370 
     1372 
     1374 
     1376 
     1378 
     1380 
     1382 
     1384 
     1386 
     1388 
     1390 
     1392 
     1394 
     1396 
     1398 
     1400 
     1402 
     1404 
     1406 
     1408 
     1410 
     1412 
     1414 
     1416 
     1418 
     1420 
     1422 
     1424 
     1426 
     1428 
     1430 
     1432 
     1434 
     1436 
     1438 
     1440 
     1442 
     1444 
     1446 
     1448 
     1450 
     1452 
     1454 
     1456 
     1458 
     1460 
     1462 
     1464 
     1466 
     1468 
     1470 