<VTKFile type="PolyData" version="1.0" byte_order="LittleEndian" header_type="UInt64">
  <PolyData>
    <Piece NumberOfPoints="169" NumberOfLines="336">
      <PointData Scalars="Scalars_">
        <DataArray type="Float32" Name="Scalars_" format="ascii">
     4.300000      4.300000      1.180000      1.320000      1.540000      1.780000      2.020000      2.260000      2.500000      2.740000      2.980000      3.240000      3.480000      3.720000      3.960000      4.220000      4.460000      4.700000      4.960000      5.200000      5.440000      5.680000      5.940000      6.180000      6.420000      6.660000      6.920000      7.160000      7.400000      7.660000      7.900000      8.139999      8.380000      8.639999      8.880000      9.120000      9.360000      9.620000      9.860000      10.099999      10.340000      10.599999      10.840000      11.080000      11.340000      11.580000      11.820000      12.059999      12.320000      12.559999      12.799999      13.040000      13.299999      13.540000      13.780000      14.020000      14.280000      14.520000      14.759999      15.000000      15.259999      15.500000      15.740000      15.980000      16.240000      16.480000      16.719999      16.959999      17.219999      17.459999      17.699999      17.940001      18.199999      18.440001      18.680000      18.920000      19.180000      19.420000      19.660000      19.920000      20.180000      20.580000      20.859999      21.100000      21.340000      21.580000      21.820000      22.080000      22.320000      22.559999      22.799999      23.059999      23.299999      23.539999      23.779999      24.019999      24.279999      24.519999      24.760000      25.000000      25.260000      25.500000      25.740000      25.980000      26.240000      26.480000      26.719999      26.959999      27.199999      27.459999      27.699999      27.939999      28.180000      28.439999      28.680000      28.920000      29.160000      29.400000      29.660000      29.900000      30.139999      30.379999      30.619999      30.859999      31.059999      20.580000      20.859999      21.100000      21.340000      21.580000      21.820000      22.080000      22.320000      22.559999      22.799999      23.059999      23.299999      23.539999      23.779999      24.019999      24.279999      24.519999      24.760000      25.000000      25.260000      25.500000      25.740000      25.980000      26.240000      26.480000      26.719999      26.959999      27.199999      27.459999      27.699999      27.939999      28.180000      28.439999      28.680000      28.920000      29.160000      29.400000      29.660000      29.900000      30.139999      30.379999      30.619999      30.859999      31.059999         </DataArray>
      </PointData>
      <Points>
        <DataArray type="Float32" Name="Points" NumberOfComponents="3" format="ascii">
0.000000 10000.000000 0.000000
100.000000 10000.000000 0.000000
200.000000 10000.000000 0.000000
300.000000 10000.000000 0.000000
400.000000 10000.000000 0.000000
500.000000 10000.000000 0.000000
600.000000 10000.000000 0.000000
700.000000 10000.000000 0.000000
800.000000 10000.000000 0.000000
900.000000 10000.000000 0.000000
1000.000000 10000.000000 0.000000
1100.000000 10000.000000 0.000000
1200.000000 10000.000000 0.000000
1300.000000 10000.000000 0.000000
1400.000000 10000.000000 0.000000
1500.000000 10000.000000 0.000000
1600.000000 10000.000000 0.000000
1700.000000 10000.000000 0.000000
1800.000000 10000.000000 0.000000
1900.000000 10000.000000 0.000000
2000.000000 10000.000000 0.000000
2100.000000 10000.000000 0.000000
2200.000000 10000.000000 0.000000
2300.000000 10000.000000 0.000000
2400.000000 10000.000000 0.000000
2500.000000 10000.000000 0.000000
2600.000000 10000.000000 0.000000
2700.000000 10000.000000 0.000000
2800.000000 10000.000000 0.000000
2900.000000 10000.000000 0.000000
3000.000000 10000.000000 0.000000
3100.000000 10000.000000 0.000000
3200.000000 10000.000000 0.000000
3300.000000 10000.000000 0.000000
3400.000000 10000.000000 0.000000
3500.000000 10000.000000 0.000000
3600.000000 10000.000000 0.000000
3700.000000 10000.000000 0.000000
3800.000000 10000.000000 0.000000
3900.000000 10000.000000 0.000000
4000.000000 10000.000000 0.000000
4100.000000 10000.000000 0.000000
4200.000000 10000.000000 0.000000
4300.000000 10000.000000 0.000000
4400.000000 10000.000000 0.000000
4500.000000 10000.000000 0.000000
4600.000000 10000.000000 0.000000
4700.000000 10000.000000 0.000000
4800.000000 10000.000000 0.000000
4900.000000 10000.000000 0.000000
5000.000000 10000.000000 0.000000
5100.000000 10000.000000 0.000000
5200.000000 10000.000000 0.000000
5300.000000 10000.000000 0.000000
5400.000000 10000.000000 0.000000
5500.000000 10000.000000 0.000000
5600.000000 10000.000000 0.000000
5700.000000 10000.000000 0.000000
5800.000000 10000.000000 0.000000
5900.000000 10000.000000 0.000000
6000.000000 10000.000000 0.000000
6100.000000 10000.000000 0.000000
6200.000000 10000.000000 0.000000
6300.000000 10000.000000 0.000000
6400.000000 10000.000000 0.000000
6500.000000 10000.000000 0.000000
6600.000000 10000.000000 0.000000
6700.000000 10000.000000 0.000000
6800.000000 10000.000000 0.000000
6900.000000 10000.000000 0.000000
7000.000000 10000.000000 0.000000
7100.000000 10000.000000 0.000000
7200.000000 10000.000000 0.000000
7300.000000 10000.000000 0.000000
7400.000000 10000.000000 0.000000
7500.000000 10000.000000 0.000000
7600.000000 10000.000000 0.000000
7700.000000 10000.000000 0.000000
7800.000000 10000.000000 0.000000
7900.000000 10000.000000 0.000000
8000.000000 10000.000000 0.000000
8089.442871 10044.721680 0.000000
8178.885254 10089.442383 0.000000
8268.328125 10134.164062 0.000000
8357.770508 10178.885742 0.000000
8447.213867 10223.606445 0.000000
8536.656250 10268.328125 0.000000
8626.098633 10313.049805 0.000000
8715.541992 10357.770508 0.000000
8804.984375 10402.492188 0.000000
8894.426758 10447.213867 0.000000
8983.870117 10491.934570 0.000000
9073.312500 10536.656250 0.000000
9162.754883 10581.377930 0.000000
9252.198242 10626.098633 0.000000
9341.640625 10670.820312 0.000000
9431.083984 10715.541992 0.000000
9520.526367 10760.262695 0.000000
9609.968750 10804.984375 0.000000
9699.412109 10849.706055 0.000000
9788.854492 10894.426758 0.000000
9878.296875 10939.148438 0.000000
9967.740234 10983.870117 0.000000
10057.182617 11028.590820 0.000000
10146.625000 11073.312500 0.000000
10236.068359 11118.034180 0.000000
10325.510742 11162.754883 0.000000
10414.953125 11207.476562 0.000000
10504.396484 11252.198242 0.000000
10593.838867 11296.918945 0.000000
10683.281250 11341.640625 0.000000
10772.724609 11386.362305 0.000000
10862.166992 11431.083984 0.000000
10951.609375 11475.804688 0.000000
11041.052734 11520.526367 0.000000
11130.495117 11565.248047 0.000000
11219.937500 11609.968750 0.000000
11309.380859 11654.690430 0.000000
11398.823242 11699.412109 0.000000
11488.265625 11744.132812 0.000000
11577.708984 11788.854492 0.000000
11667.151367 11833.576172 0.000000
11756.593750 11878.296875 0.000000
11846.037109 11923.018555 0.000000
11935.479492 11967.740234 0.000000
8089.442871 9955.278320 0.000000
8178.885254 9910.557617 0.000000
8268.328125 9865.835938 0.000000
8357.770508 9821.114258 0.000000
8447.213867 9776.393555 0.000000
8536.656250 9731.671875 0.000000
8626.098633 9686.950195 0.000000
8715.541992 9642.229492 0.000000
8804.984375 9597.507812 0.000000
8894.426758 9552.786133 0.000000
8983.870117 9508.065430 0.000000
9073.312500 9463.343750 0.000000
9162.754883 9418.622070 0.000000
9252.198242 9373.901367 0.000000
9341.640625 9329.179688 0.000000
9431.083984 9284.458008 0.000000
9520.526367 9239.737305 0.000000
9609.968750 9195.015625 0.000000
9699.412109 9150.293945 0.000000
9788.854492 9105.573242 0.000000
9878.296875 9060.851562 0.000000
9967.740234 9016.129883 0.000000
10057.182617 8971.409180 0.000000
10146.625000 8926.687500 0.000000
10236.068359 8881.965820 0.000000
10325.510742 8837.245117 0.000000
10414.953125 8792.523438 0.000000
10504.396484 8747.801758 0.000000
10593.838867 8703.081055 0.000000
10683.281250 8658.359375 0.000000
10772.724609 8613.637695 0.000000
10862.166992 8568.916016 0.000000
10951.609375 8524.195312 0.000000
11041.052734 8479.473633 0.000000
11130.495117 8434.751953 0.000000
11219.937500 8390.031250 0.000000
11309.380859 8345.309570 0.000000
11398.823242 8300.587891 0.000000
11488.265625 8255.867188 0.000000
11577.708984 8211.145508 0.000000
11667.151367 8166.424316 0.000000
11756.593750 8121.703125 0.000000
11846.037109 8076.981445 0.000000
11935.479492 8032.260254 0.000000
        </DataArray>
      </Points>
      <Lines>
        <DataArray type="Int64" Name="connectivity" format="ascii">
0 1
1 0
1 2
2 1
2 3
3 2
3 4
4 3
4 5
5 4
5 6
6 5
6 7
7 6
7 8
8 7
8 9
9 8
9 10
10 9
10 11
11 10
11 12
12 11
12 13
13 12
13 14
14 13
14 15
15 14
15 16
16 15
16 17
17 16
17 18
18 17
18 19
19 18
19 20
20 19
20 21
21 20
21 22
22 21
22 23
23 22
23 24
24 23
24 25
25 24
25 26
26 25
26 27
27 26
27 28
28 27
28 29
29 28
29 30
30 29
30 31
31 30
31 32
32 31
32 33
33 32
33 34
34 33
34 35
35 34
35 36
36 35
36 37
37 36
37 38
38 37
38 39
39 38
39 40
40 39
40 41
41 40
41 42
42 41
42 43
43 42
43 44
44 43
44 45
45 44
45 46
46 45
46 47
47 46
47 48
48 47
48 49
49 48
49 50
50 49
50 51
51 50
51 52
52 51
52 53
53 52
53 54
54 53
54 55
55 54
55 56
56 55
56 57
57 56
57 58
58 57
58 59
59 58
59 60
60 59
60 61
61 60
61 62
62 61
62 63
63 62
63 64
64 63
64 65
65 64
65 66
66 65
66 67
67 66
67 68
68 67
68 69
69 68
69 70
70 69
70 71
71 70
71 72
72 71
72 73
73 72
73 74
74 73
74 75
75 74
75 76
76 75
76 77
77 76
77 78
78 77
78 79
79 78
79 80
80 79
80 81
80 125
81 80
81 82
82 81
82 83
83 82
83 84
84 83
84 85
85 84
85 86
86 85
86 87
87 86
87 88
88 87
88 89
89 88
89 90
90 89
90 91
91 90
91 92
92 91
92 93
93 92
93 94
94 93
94 95
95 94
95 96
96 95
96 97
97 96
97 98
98 97
98 99
99 98
99 100
100 99
100 101
101 100
101 102
102 101
102 103
103 102
103 104
104 103
104 105
105 104
105 106
106 105
106 107
107 106
107 108
108 107
108 109
109 108
109 110
110 109
110 111
111 110
111 112
112 111
112 113
113 112
113 114
114 113
114 115
115 114
115 116
116 115
116 117
117 116
117 118
118 117
118 119
119 118
119 120
120 119
120 121
121 120
121 122
122 121
122 123
123 122
123 124
124 123
125 80
125 126
126 125
126 127
127 126
127 128
128 127
128 129
129 128
129 130
130 129
130 131
131 130
131 132
132 131
132 133
133 132
133 134
134 133
134 135
135 134
135 136
136 135
136 137
137 136
137 138
138 137
138 139
139 138
139 140
140 139
140 141
141 140
141 142
142 141
142 143
143 142
143 144
144 143
144 145
145 144
145 146
146 145
146 147
147 146
147 148
148 147
148 149
149 148
149 150
150 149
150 151
151 150
151 152
152 151
152 153
153 152
153 154
154 153
154 155
155 154
155 156
156 155
156 157
157 156
157 158
158 157
158 159
159 158
159 160
160 159
160 161
161 160
161 162
162 161
162 163
163 162
163 164
164 163
164 165
165 164
165 166
166 165
166 167
167 166
167 168
168 167
        </DataArray>
        <DataArray type="Int64" Name="offsets" format="ascii">
     2 
     4 
     6 
     8 
     10 
     12 
     14 
     16 
     18 
     20 
     22 
     24 
     26 
     28 
     30 
     32 
     34 
     36 
     38 
     40 
     42 
     44 
     46 
     48 
     50 
     52 
     54 
     56 
     58 
     60 
     62 
     64 
     66 
     68 
     70 
     72 
     74 
     76 
     78 
     80 
     82 
     84 
     86 
     88 
     90 
     92 
     94 
     96 
     98 
     100 
     102 
     104 
     106 
     108 
     110 
     112 
     114 
     116 
     118 
     120 
     122 
     124 
     126 
     128 
     130 
     132 
     134 
     136 
     138 
     140 
     142 
     144 
     146 
     148 
     150 
     152 
     154 
     156 
     158 
     160 
     162 
     164 
     166 
     168 
     170 
     172 
     174 
     176 
     178 
     180 
     182 
     184 
     186 
     188 
     190 
     192 
     194 
     196 
     198 
     200 
     202 
     204 
     206 
     208 
     210 
     212 
     214 
     216 
     218 
     220 
     222 
     224 
     226 
     228 
     230 
     232 
     234 
     236 
     238 
     240 
     242 
     244 
     246 
     248 
     250 
     252 
     254 
     256 
     258 
     260 
     262 
     264 
     266 
     268 
     270 
     272 
     274 
     276 
     278 
     280 
     282 
     284 
     286 
     288 
     290 
     292 
     294 
     296 
     298 
     300 
     302 
     304 
     306 
     308 
     310 
     312 
     314 
     316 
     318 
     320 
     322 
     324 
     326 
     328 
     330 
     332 
     334 
     336 
     338 
     340 
     342 
     344 
     346 
     348 
     350 
     352 
     354 
     356 
     358 
     360 
     362 
     364 
     366 
     368 
     370 
     372 
     374 
     376 
     378 
     380 
     382 
     384 
     386 
     388 
     390 
     392 
     394 
     396 
     398 
     400 
     402 
     404 
     406 
     408 
     410 
     412 
     414 
     416 
     418 
     420 
     422 
     424 
     426 
     428 
     430 
     432 
     434 
     436 
     438 
     440 
     442 
     444 
     446 
     448 
     450 
     452 
     454 
     456 
     458 
     460 
     462 
     464 
     466 
     468 
     470 
     472 
     474 
     476 
     478 
     480 
     482 
     484 
     486 
     488 
     490 
     492 
     494 
     496 
     498 
     500 
     502 
     504 
     506 
     508 
     510 
     512 
     514 
     516 
     518 
     520 
     522 
     524 
     526 
     528 
     530 
     532 
     534 
     536 
     538 
     540 
     542 
     544 
     546 
     548 
     550 
     552 
     554 
     556 
     558 
     560 
     562 
     564 
     566 
     568 
     570 
     572 
     574 
     576 
     578 
     580 
     582 
     584 
     586 
     588 
     590 
     592 
     594 
     596 
     598 
     600 
     602 
     604 
     606 
     608 
     610 
     612 
     614 
     616 
     618 
     620 
     622 
     624 
     626 
     628 
     630 
     632 
     634 
     636 
     638 
     640 
     642 
     644 
     646 
     648 
     650 
     652 
     654 
     656 
     658 
     660 
     662 
     664 
     666 
     668 
     670 
     672 
        </DataArray>
      </Lines>
    </Piece>
  </PolyData>
</VTKFile>
