# vtk DataFile Version 3.0
Tree converted
ASCII
DATASET POLYDATA
POINTS 400 float
198.39 17.86 -50
198.69 9.17 15.69
196.063 24.5661 -23.6047
181.19 82.52 11.85
196.831 11.9442 6.8413
194.98 -27.1 95.63
197.692 19.8718 -42.0814
177.53 -90.47 0
190.2 46.9076 3.87473
182.87 72.38 104.3
195.163 -1.02025 76.0208
193.52 21.42 127.07
180.378 72.2565 8.98521
142.57 138.94 20.44
193.223 -17.1659 91.9272
181.66 -66.05 151.82
181.151 -59.3914 8.35155
167.42 -105.58 77.92
175.515 79.047 60.7531
146.13 132.58 92.24
173.796 -79.8742 6.43101
135.6 -145.76 10.74
192.383 18.7319 116.242
181.29 58.32 177.35
189.333 -28.0761 131.614
189.24 -14.23 182.33
145.317 124.979 28.7529
109.17 165.29 63.22
164.908 98.0234 83.1295
156.42 111.35 159.86
187.753 -28.8336 154.74
178.23 -60.19 198.99
127.214 143.556 34.735
85.72 179.93 5.01
148.129 -121.396 25.6036
125.78 -152.87 69.98
165.732 -97.4217 69.8513
145.7 -129.23 128.61
152.925 -116.349 122.553
148.61 -119.58 174.13
183.7 43.2914 172.285
177.22 49.89 229.1
151.428 116.104 132.613
128.89 143.56 150.24
152.559 114.351 152.703
147.03 115.47 208
174.842 56.6041 217.488
161.32 81.41 252.56
131.151 -138.974 39.1331
69.96 -186.25 36.66
114.197 157.249 57.5304
89.66 174.61 110.07
128.808 139.147 143.631
96.4 167.02 151.82
150.025 -116.735 105.581
100.19 -166.42 133.08
184.175 -36.2171 179.412
180.56 -21.1 245.63
140.646 124.352 178.602
114.75 149.11 197.8
178.607 -50.5078 194.765
155.87 -92.06 251.32
169.128 -64.9167 231.859
170.74 -54.48 262.61
103.771 160.492 29.3671
39.79 194.38 53.72
180.768 -16.3755 231.636
177.17 13.05 271.33
121.762 -143.861 137.086
106.04 -156.83 186.67
158.832 -83.5691 239.233
128.73 -130.29 235.88
141.685 120.947 198.54
135.76 117.16 264.32
92.0172 -167.628 53.4945
61.32 -187.28 93.25
103.343 157.831 157.933
74.9 174.02 185.35
56.5763 183.718 60.0195
26.62 195.03 104.05
75.2446 -179.496 38.7664
39.96 -195.2 0
69.9279 175.875 38.9543
6.99 199.03 3.7
50.8906 -188.499 27.3523
18.51 -198.19 31.23
124.041 138.814 195.493
101.58 151.61 240.29
40.4508 189.851 98.8614
41.78 189.46 135.84
168.177 65.945 241.595
161.04 61.31 302
44.5832 187.345 72.3493
2.01 197.8 73.18
169.837 -55.8369 257.068
168.32 -38.08 299.9
102.546 -156.804 158.773
66.61 -178.97 172.04
166.955 -63.824 251.31
151.43 -85 293.37
65.1847 -181.784 91.591
40.04 -190.11 132.76
135.978 117.679 253.783
125.89 113.56 315.92
67.0826 -178.999 76.0003
11.66 -197.28 75.47
130.341 -119.044 240.738
91.48 -156.87 248.44
177.33 -0.939954 261.826
167.26 3.5 325.36
85.9705 -166.213 175.909
74.15 -171.41 208.6
105.488 147.161 235.792
83.45 154 288.22
26.7777 -193.915 31.6668
-21.89 -197.42 46.26
90.0439 154.458 252.288
69.22 167.36 249.77
13.6549 192.935 82.0933
-17.22 195.36 106.2
77.1119 169.931 170.605
34.04 187.17 179.69
141.038 -104.694 247.832
119.24 -125.5 296.03
16.3333 190.881 22.0682
-31.57 196.39 29.01
51.0196 179.118 186.237
33.15 183.04 216.05
-2.01087 193.482 105.781
-15.83 192.81 146.03
167.852 14.9848 305.342
154.99 50.86 344.63
166.861 -47.8546 288.134
153.24 -53.36 347.41
70.231 -174.707 174.349
33.01 -187.7 176.65
154.37 -59.7631 326.986
141.71 -82.52 342.21
39.6707 -188.009 115.654
2.8 -194.5 130.48
166.518 8.04927 321.232
160.14 0.72 357.36
-19.6103 192.63 18.1105
-57.29 190.83 0
123.135 117.835 305.329
104.52 124.12 349.11
3.65852 -195.012 31.1736
-44.5 -194.99 0
18.0031 -190.471 134.163
-6.11 -191.24 169.05
38.8107 182.786 184.331
-3.44 189.79 185.25
-15.6319 -195.361 42.4132
-55.66 -190.11 65.12
74.2782 -170.416 197.116
38.76 -180.27 226.98
81.2139 154.36 281.305
64.16 154.5 325.12
125.935 -115.234 290.126
112.01 -118.56 343.8
10.1614 194.394 79.4193
-51.2 191.19 74.14
125.497 -116.668 275.815
85.05 -151.83 293.64
75.7143 161.279 252.227
27.85 178.3 256.71
-13.5288 193.178 107.228
-54.95 187.69 115.31
3.55555 -190.603 144.872
-38.69 -189.93 143.37
16.6136 185.249 194.785
-4.25 185.58 220.88
-33.2754 -192.294 20.049
-73.21 -185.33 27.07
-37.9136 190.892 16.2712
-77.68 183.69 39.9
53.5581 -174.349 226.915
40.87 -173.2 269.41
119.421 115.383 324.955
132.51 88.2 361.08
153.371 -53.6084 341.171
149.41 -28.15 388.92
-17.7447 191.197 138.081
-42.41 186.09 175.14
158.01 33.1415 340.538
147.4 38.83 386.14
147.129 -70.3232 339.091
134.3 -78.3 375.39
-38.2707 186.763 151.304
-69.91 179.74 153.54
-2.99637 -190.144 162.42
-19.08 -185.73 209.77
46.8921 169.616 265.327
27.48 171.6 293.89
-14.1683 -190.634 138.561
-41.57 -192.12 102.69
43.2503 -177.103 228.536
8.47 -182.6 238.37
32.4795 174.232 260.805
-8.45 180.88 254.57
-45.2961 188.554 80.3154
-82.71 179.03 91.67
96.4083 -139.058 297.599
79.39 -146.4 328.15
61.8339 156.127 312.256
31.49 160.51 341.77
-47.7615 185.792 116.681
-88.45 173.07 131.75
83.7356 -144.973 306.772
38.71 -167.15 304.2
54.4245 155.663 326.95
67.43 144.36 360.29
108.665 -121.433 333.703
84.15 -132.62 369.08
-73.1307 181.397 34.1672
-106.88 167.27 46.43
150.151 30.2757 377.839
145.1 14.78 408.61
-0.481071 184.637 210.383
-41.41 179.86 226.05
-63.5586 -184.882 31.3484
-95.79 -173.78 52.38
-65.1068 183.161 23.6564
-103.86 170.26 3.83
125.58 96.7249 358.22
122.72 87.58 392.15
147.22 -46.025 374.634
135.93 -55.62 406.11
-46.0552 -189.559 64.6361
-78.54 -180.64 95.83
-21.0675 -186.723 180.294
-53.75 -181.71 185.67
35.5727 -174.67 251.619
0.2 -176.48 278.72
118.754 107.245 349.372
95.74 114.56 397.19
8.52495 175.726 266.82
-17.99 173.87 287.63
101.568 -120.278 359.301
104.33 -107.72 394.8
-44.0565 184.909 166.072
-69.25 175.2 197.2
-31.3639 -188.437 143.076
-75.69 -176.7 158.79
150.151 30.2757 377.839
132.45 59.95 410.15
135.859 -76.9989 369.593
120.69 -84.39 403.99
-55.9578 -186.148 22.1009
-102.28 -171.16 0
-62.2159 178.864 157.865
-96.67 164.57 172.82
11.8833 -174.366 278.087
1.5 -171 307.43
28.3568 170.064 289
2.88 168.95 317.23
138.959 -47.8704 401.488
130.62 -41.65 434.57
-78.315 175.171 118.521
-110.38 162.4 106.03
-24.1214 -185.245 196.829
-47.85 -178.65 224.71
106.627 106.574 386.99
108.32 94.4 415.41
136.784 -36.653 417.364
138.34 -13.14 429.83
77.7077 -146.488 319.412
49.06 -153.04 355.83
-92.3647 168.774 118.794
-116.83 154.11 144.56
-62.2884 -180.006 144.533
-91.15 -171.74 130.32
60.629 147.148 355.317
61.72 138.17 390.16
122.23 -83.1527 398.245
104.52 -90.53 432.61
-73.8341 -179.915 80.2948
-108.14 -165.31 84.91
-101.59 166.579 42.4433
-136.2 144.62 49.71
16.7031 -174.975 263.979
-26.45 -177.78 258.61
36.6716 158.734 336.087
-1.94 162.71 346.7
91.9008 -125.242 368.13
66.11 -131.93 403.51
-97.185 170.222 14.1364
-124.31 155.38 17.98
49.4206 -157.725 313.228
12.64 -165.17 332.77
56.9449 145.055 368.789
32.21 149.51 384.35
-6.88498 174.614 272.307
-50.41 171.36 265.88
-94.2637 -171.042 10.9783
-126.59 -153.61 13.95
-46.8118 -181.013 188.498
-75.66 -172.06 203.45
144.027 25.8215 402.814
132.61 27.65 440.66
3.92594 168.374 307.498
-29.78 165.3 322.8
116.554 -80.0589 419.22
117.14 -65.78 443.7
-91.4962 -172.377 43.679
-126.5 -152.91 51.35
-43.012 -178.747 223.197
-57.69 -171.46 251.17
2.13766 -172.011 293.76
-31.77 -165.96 316.68
99.2443 110.557 394.85
74.89 119.62 423.46
-39.7704 171.466 261.045
-74.59 167.09 239.43
69.1603 -133.147 385.533
40.16 -145.83 389.85
-118.568 155.628 55.9156
-132.56 146.29 84.33
-83.3574 -172.3 141.975
-104.55 -161.93 151.64
134.612 51.5238 407.88
119.94 63.77 438.97
17.6156 158.248 351.554
1.71 153.59 382.23
-25.4012 171.844 272.263
-56.93 162.7 300.15
49.8581 -152.172 346.215
19.17 -157.43 363.11
-67.021 174.646 188.478
-97.28 159.35 210.52
-116.834 157.585 11.1007
-144.11 137.81 0
-90.5129 -169.659 135.471
-119.44 -154.52 118
105.273 98.5833 410.143
100.34 88.47 445.32
107.712 -87.7979 425.983
83.48 -109.16 434.05
135.543 -28.0515 427.088
124.92 -20.56 462.78
-109.754 157.926 125.839
-133.5 142.6 121.87
-133.367 144.465 13.6751
-152.5 127.68 29.81
134.301 22.9461 434.897
125.6 12.94 463.33
6.7249 156.485 362.185
-29.5 154.64 368.33
114.07 -75.984 432.417
97.68 -78.49 466.27
-114.022 -159.087 56.8188
-131.94 -147.16 81.84
-90.1656 164.486 171.573
-122.66 143.85 189.73
-14.9288 -174.283 267.668
-46.95 -169.3 283.29
75.9774 119.489 415.657
50.94 129.51 428.29
94.1173 -96.0866 437.687
79.93 -99.09 460.87
64.8269 -132.347 397.301
44.09 -129.78 434.92
-116.243 147.639 178.168
-136.88 133.8 169.19
-127.595 148.294 65.9807
-156.06 121.25 73.01
-71.8431 -171.648 195.176
-103.24 -157.8 195.26
18.6723 -160.91 329.909
-18.36 -160.59 350.47
-46.2332 164.251 298.604
-54.76 157.79 326.5
109.355 -72.4502 447.579
112 -45.91 475.43
28.2756 -153.387 364.539
7.85 -150.5 392.35
-125.482 145.692 129.773
-145.57 127.37 143.29
-72.9882 -171.772 197.658
-85.14 -162.63 232.92
-28.7791 -165.5 310.575
-59.84 -157.4 321.07
42.2712 145.378 384.721
25.74 142.39 412.35
-54.9144 168.329 257.175
-80.79 157.5 275.09
-119.391 -155.212 8.85532
-147.06 -134.43 0
-82.6296 -163.584 230.536
-86.59 -158.2 254.63
129.934 23.1808 446.256
119.89 43.92 461.2
-9.53605 153.658 373.405
-20.3 147.97 396.99
48.2533 -134.478 411.022
23.41 -142.16 414.06
-131.081 -146.202 10.2884
-149.53 -130.93 36.17
-89.62 161.193 208.723
-113.15 144.08 235.59
LINES 399 1197
2 4 1
2 6 2
2 12 3
2 2 4
2 14 5
2 0 6
2 20 7
2 2 8
2 18 9
2 4 10
2 22 11
2 8 12
2 26 13
2 10 14
2 24 15
2 6 16
2 36 17
2 8 18
2 28 19
2 16 20
2 34 21
2 10 22
2 40 23
2 14 24
2 30 25
2 12 26
2 50 27
2 18 28
2 44 29
2 24 30
2 60 31
2 26 32
2 64 33
2 20 34
2 48 35
2 16 36
2 38 37
2 54 38
2 38 39
2 22 40
2 46 41
2 28 42
2 52 43
2 42 44
2 72 45
2 40 46
2 90 47
2 34 48
2 80 49
2 32 50
2 50 51
2 42 52
2 76 53
2 36 54
2 68 55
2 30 56
2 66 57
2 44 58
2 86 59
2 56 60
2 70 61
2 60 62
2 94 63
2 32 64
2 78 65
2 56 66
2 108 67
2 54 68
2 96 69
2 62 70
2 106 71
2 58 72
2 102 73
2 48 74
2 100 75
2 52 76
2 120 77
2 82 78
2 88 79
2 74 80
2 84 81
2 64 82
2 124 83
2 80 84
2 114 85
2 58 86
2 112 87
2 92 88
2 88 89
2 46 90
2 90 91
2 78 92
2 160 93
2 98 94
2 132 95
2 68 96
2 134 97
2 62 98
2 98 99
2 104 100
2 138 101
2 72 102
2 144 103
2 74 104
2 104 105
2 122 106
2 106 107
2 66 108
2 140 109
2 96 110
2 154 111
2 86 112
2 156 113
2 84 114
2 152 115
2 112 116
2 164 117
2 92 118
2 166 119
2 76 120
2 150 121
2 70 122
2 158 123
2 82 124
2 142 125
2 120 126
2 126 127
2 118 128
2 182 129
2 108 130
2 184 131
2 94 132
2 180 133
2 110 134
2 134 135
2 132 136
2 186 137
2 100 138
2 148 139
2 130 140
2 140 141
2 124 142
2 174 143
2 102 144
2 178 145
2 114 146
2 172 147
2 138 148
2 190 149
2 126 150
2 170 151
2 146 152
2 228 153
2 110 154
2 196 155
2 116 156
2 204 157
2 162 158
2 212 159
2 118 160
2 200 161
2 122 162
2 202 163
2 116 164
2 198 165
2 128 166
2 206 167
2 148 168
2 242 169
2 150 170
2 218 171
2 146 172
2 220 173
2 142 174
2 214 175
2 154 176
2 232 177
2 144 178
2 224 179
2 136 180
2 226 181
2 128 182
2 240 183
2 130 184
2 244 185
2 136 186
2 246 187
2 182 188
2 250 189
2 168 190
2 260 191
2 164 192
2 254 193
2 168 194
2 194 195
2 176 196
2 196 197
2 192 198
2 236 199
2 160 200
2 200 201
2 162 202
2 266 203
2 156 204
2 282 205
2 166 206
2 258 207
2 202 208
2 288 209
2 204 210
2 272 211
2 158 212
2 284 213
2 222 214
2 278 215
2 184 216
2 298 217
2 170 218
2 218 219
2 248 220
2 304 221
2 174 222
2 286 223
2 234 224
2 224 225
2 180 226
2 256 227
2 152 228
2 276 229
2 190 230
2 296 231
2 176 232
2 252 233
2 178 234
2 310 235
2 198 236
2 292 237
2 212 238
2 238 239
2 188 240
2 328 241
2 194 242
2 270 243
2 216 244
2 320 245
2 186 246
2 274 247
2 172 248
2 294 249
2 188 250
2 352 251
2 280 252
2 308 253
2 192 254
2 300 255
2 226 256
2 264 257
2 206 258
2 268 259
2 230 260
2 306 261
2 234 262
2 334 263
2 256 264
2 338 265
2 208 266
2 326 267
2 258 268
2 340 269
2 242 270
2 332 271
2 210 272
2 290 273
2 246 274
2 336 275
2 228 276
2 276 277
2 214 278
2 316 279
2 232 280
2 354 281
2 210 282
2 322 283
2 238 284
2 360 285
2 222 286
2 330 287
2 208 288
2 368 289
2 272 290
2 382 291
2 236 292
2 312 293
2 248 294
2 386 295
2 230 296
2 378 297
2 216 298
2 344 299
2 254 300
2 300 301
2 274 302
2 348 303
2 220 304
2 350 305
2 260 306
2 306 307
2 252 308
2 380 309
2 262 310
2 356 311
2 324 312
2 384 313
2 284 314
2 314 315
2 278 316
2 364 317
2 270 318
2 318 319
2 244 320
2 320 321
2 282 322
2 346 323
2 292 324
2 370 325
2 266 326
2 374 327
2 240 328
2 398 329
2 286 330
2 342 331
2 318 332
2 332 333
2 262 334
2 334 335
2 302 336
2 358 337
2 264 338
2 338 339
2 268 340
2 376 341
2 330 342
2 342 343
2 298 344
2 390 345
2 322 346
2 392 347
2 302 348
2 372 349
2 304 350
2 350 351
2 250 352
2 362 353
2 280 354
2 354 355
2 310 356
2 356 357
2 336 358
2 358 359
2 314 360
2 394 361
2 352 362
2 362 363
2 316 364
2 364 365
2 296 366
2 366 367
2 288 368
2 368 369
2 324 370
2 370 371
2 348 372
2 372 373
2 326 374
2 374 375
2 340 376
2 376 377
2 366 378
2 388 379
2 308 380
2 380 381
2 290 382
2 382 383
2 312 384
2 384 385
2 294 386
2 396 387
2 378 388
2 388 389
2 344 390
2 390 391
2 346 392
2 392 393
2 360 394
2 394 395
2 386 396
2 396 397
2 328 398
2 398 399
CELL_DATA 399
SCALARS radius float
LOOKUP_TABLE default
0.101431
1.05959
0.106104
0.788584
0.109292
1.1811
0.113551
0.887579
0.154568
0.788024
0.117475
0.67844
0.122845
0.768975
0.158549
0.770829
0.11567
0.728711
0.153301
0.681006
0.145899
0.325971
0.145753
0.768238
0.147676
0.677574
0.129195
0.726385
0.10926
0.765981
0.115991
0.676225
0.154928
0.679952
0.152092
0.521931
0.142283
0.214365
0.191021
0.320804
0.161434
0.724102
0.111391
0.686201
0.124257
0.310444
0.198363
0.677705
0.115318
0.214529
0.197611
0.383838
0.134316
0.520031
0.162928
0.764147
0.131874
0.685277
0.129014
0.69671
0.133359
0.695637
0.106015
0.66895
0.142535
0.476241
0.142221
0.507594
0.164754
0.561695
0.144238
0.463011
0.128567
0.675142
0.1114
0.380685
0.150054
0.572828
0.157094
0.519321
0.161869
0.666168
0.15133
0.517418
0.124411
0.606003
0.114939
0.224189
0.194791
0.295152
0.261622
0.569871
0.129933
0.535588
0.140527
0.501936
0.132386
0.542216
0.179415
0.54423
0.145983
0.460009
0.143608
0.551438
0.186529
0.230011
0.209294
0.472846
0.134825
0.495948
0.141912
0.604048
0.122951
0.512083
0.130271
0.602657
0.127464
0.558062
0.108484
0.375028
0.144829
0.559178
0.142685
0.475734
0.148529
0.366843
0.200319
0.536343
0.132236
0.468518
0.167279
0.534199
0.123197
0.227624
0.211595
0.530938
0.149264
0.54267
0.149267
0.228311
0.211419
0.470574
0.17013
0.456636
0.188022
0.509623
0.171551
0.539125
0.130905
0.345742
0.20684
0.325645
0.158191
0.47942
0.139057
0.473695
0.152421
0.431316
0.148306
0.269218
0.161781
0.545892
0.160213
0.482876
0.13151
0.39723
0.134867
0.535284
0.139213
0.337054
0.197949
0.460768
0.153794
0.465589
0.138604
0.475239
0.182021
0.451852
0.17425
0.384204
0.187129
0.450793
0.150538
0.4497
0.164957
0.452993
0.130788
0.446967
0.153595
0.452264
0.174892
0.479897
0.132644
0.393362
0.207126
0.238172
0.221189
0.437868
0.181536
0.258725
0.235642
0.435217
0.146612
0.470918
0.14761
0.394514
0.180598
0.427856
0.186654
0.465534
0.160165
0.426046
0.163813
0.373186
0.149173
0.441848
0.181656
0.308785
0.278863
0.346767
0.172178
0.45789
0.169179
0.260455
0.23132
0.379934
0.166644
0.318542
0.214471
0.448579
0.151618
0.454398
0.182092
0.440728
0.158038
0.433878
0.183295
0.41997
0.215071
0.351438
0.170374
0.373205
0.198358
0.316029
0.191425
0.447526
0.141492
0.452701
0.179088
0.358018
0.164937
0.386298
0.204089
0.298395
0.186845
0.364156
0.217126
0.389189
0.206277
0.312617
0.171216
0.408044
0.18638
0.352131
0.224189
0.347239
0.175074
0.375769
0.220991
0.366633
0.176488
0.353317
0.216812
0.443771
0.173885
0.304967
0.26447
0.366701
0.221396
0.444446
0.217726
0.384367
0.204661
0.400258
0.170321
0.353115
0.181029
0.331579
0.187872
0.341986
0.209037
0.423015
0.186737
0.371032
0.184776
0.390861
0.165338
0.3796
0.190285
0.289389
0.260669
0.438923
0.203857
0.336374
0.22719
0.293188
0.272267
0.372311
0.215261
0.341455
0.21301
0.344294
0.250367
0.390895
0.238764
0.35828
0.234177
0.346156
0.23686
0.300275
0.271713
0.376969
0.220096
0.411217
0.20942
0.338298
0.211481
0.341978
0.201346
0.339665
0.239035
0.304342
0.283112
0.304122
0.278727
0.340482
0.242029
0.32213
0.280877
0.353788
0.222314
0.321579
0.269609
0.365194
0.264842
0.355681
0.249588
0.355923
0.245304
0.32061
0.276893
0.348335
0.243041
0.311229
0.27065
0.329776
0.297003
0.324639
0.271605
0.358607
0.272079
0.335545
0.286119
0.327538
0.281458
0.383103
0.247643
0.310559
0.285705
0.306256
0.269345
0.332068
0.279591
0.321885
0.288018
0.322332
0.28232
0.344934
0.190454
0.35063
0.321182
0.310049
0.274444
0.324913
0.264985
0.356568
0.253082
0.331776
0.309377
0.347091
0.285366
0.325022
0.26584
0.345314
0.276044
0.339196
0.283625
0.327258
0.299577
