# vtk DataFile Version 3.0
Lsystem
ASCII
DATASET POLYDATA
POINTS 238 float
10000 20000 0
10000 19800 0
9871.66 19455.5 0
10211.1 18715 0
11539.4 17552.3 0
10402.4 17907.1 0
13146.1 17173.5 0
11474.4 16258.9 0
10258.6 16782.2 0
13719.7 16195.7 0
14193.4 17281 0
12789.2 15194.7 0
10534.9 15398.3 0
9228.41 16393.5 0
15113.9 15067.6 0
14992.8 17494.3 0
15909.8 17301.7 0
12714.2 14345.9 0
10409 14551.7 0
9518.95 15145.6 0
7968.73 16295.3 0
15956 14653.1 0
15297.4 13981.5 0
17193.7 17182.6 0
13478.7 12752.8 0
11692 13557.6 0
11220.1 12890.4 0
9350.59 13561.4 0
8279.67 13919.7 0
8372.36 14869.1 0
6869.21 16165.9 0
16037.9 13556.2 0
16762.7 14485 0
18044.2 17018.4 0
14227.1 12224.8 0
12182.1 12543.2 0
10829.6 11435.1 0
9547.94 12577.4 0
8249.65 12239.6 0
7007.2 13733.4 0
7504.14 15205 0
6057.11 16458.9 0
5850.34 15427.2 0
16387.5 12773.7 0
18136.4 13746 0
17618.4 14585.7 0
18782.6 15992.9 0
19622.2 16905.5 0
14976.7 11532 0
12815.3 11945.6 0
11572.7 10598 0
10540.3 10029.6 0
8956.04 11509.8 0
7107.37 11172.9 0
6035.26 13142.4 0
5857.71 14165.2 0
4673.12 16596.2 0
5352.15 17242.9 0
4290.48 15184.2 0
17486.2 11783.1 0
19436.4 13075.2 0
18169.7 12441.9 0
19588.7 14876.2 0
15873.1 10960.8 0
14903.1 10611 0
12751 10485.7 0
10743.6 9064.55 0
9956.94 8778.48 0
9113.81 10646.8 0
7295.69 10268 0
6051.6 11730.7 0
5208.9 12993.2 0
3810.03 16457.5 0
3731.44 17359.5 0
4579.36 17867.4 0
5223.68 18630.6 0
3047.8 14643 0
19016 10974.2 0
17378.5 10947.9 0
19964.3 11602.9 0
16402.9 10148.2 0
15592.3 9192.71 0
13509.5 9659.01 0
11128.9 8330.03 0
10577.8 7178.95 0
8647.28 7741.34 0
8179.56 9198.73 0
6313.16 8680.17 0
5555.49 11079.4 0
3844.28 13264.5 0
3960.41 12248.8 0
2744.63 16083.5 0
2953.2 17621.2 0
4765.6 19412.7 0
6085.9 19844.6 0
2422.86 13715.7 0
2185.69 14883 0
19862.2 9476.82 0
18453.2 9985.55 0
19789.7 10665.1 0
16708.2 8760.9 0
15167.3 8494.39 0
12821.6 8639.07 0
12062.2 9848.43 0
11465.2 6402.9 0
10425.2 5685.6 0
8118.35 6537.36 0
7604.29 7643.34 0
5731.55 7912.34 0
4114.28 10452.6 0
3794.26 11193.4 0
2832.05 12139.4 0
2184.67 17381.8 0
2247.42 18572.1 0
3292.33 19750.9 0
7127.66 19959.4 0
1483.22 12661.4 0
708.418 14956.1 0
1928.08 15752.8 0
19914.7 8479.23 0
18886.4 9018.35 0
18031 8643.98 0
17614.7 7919.76 0
14995.4 7373.27 0
13688.9 7663.77 0
12799.6 7080.97 0
12252.8 5920.63 0
11689.8 4888.25 0
11200.9 4167.76 0
9649.81 4316.5 0
8064.75 5060.12 0
7271.97 5765.39 0
5666.29 7049.17 0
3764.02 8729.94 0
3142.78 10069.2 0
1037.38 17542 0
1395.11 18986.5 0
1898.46 19962.8 0
8554.04 19684 0
2014.19 11583.5 0
65.6395 14331 0
19865.4 7552.86 0
18768 7518.75 0
17804.7 6977.86 0
15720 6149.16 0
14012.4 6337.34 0
13331.1 5775.56 0
12758.1 3640.06 0
11877.8 3607.45 0
10656.9 3094.48 0
9531.69 3396.41 0
6942.32 3692.45 0
6044.5 5662.77 0
4886.54 6520.27 0
4619.92 7714.96 0
3133.58 8018.89 0
2821.02 9102.89 0
83.2322 18461.4 0
171.372 19920.8 0
1033.7 19847 0
2037.21 10661.2 0
108.698 12995.7 0
19696.9 6764.86 0
18717 6490.83 0
17440.6 5702.98 0
16333 5634.22 0
15677 4939.2 0
14106 4651.3 0
13757.2 3319.48 0
12909.1 2175.7 0
12009.8 2599.52 0
10519.9 1721.12 0
8531.09 2067.8 0
6593.71 2834.43 0
5004.21 5124.56 0
3750.66 5524.69 0
3623.22 6827.09 0
2225.51 7232.02 0
983.249 8982.1 0
313.985 12183.6 0
19384.2 5927.43 0
19132.2 5088.65 0
18232.9 3951.03 0
16187.4 3781.27 0
15276.2 3339.96 0
14551 2781.16 0
13697.9 1027.63 0
12436.5 817.286 0
11589.9 1826.28 0
8224.6 790.421 0
6627.72 1822.97 0
4452.05 4395.76 0
3564.15 4439.31 0
2533.38 4551.04 0
1731.92 5844.15 0
414.161 8274.64 0
556.655 11081.4 0
19978.5 4365.14 0
19507.6 3078.46 0
17799.1 2509.37 0
17432.6 3239.04 0
14973.6 729.918 0
12917.8 120.095 0
11580.4 659.268 0
10632.1 785.607 0
8690.27 64.6292 0
7614.24 139.084 0
5879.82 507.099 0
4361.92 3480.99 0
2536.1 3344.82 0
326.011 4857.74 0
378.215 6876.83 0
101.524 9745.08 0
19918.2 2265.47 0
18467.6 867.894 0
16579.8 1758.34 0
16334.1 419.273 0
15550.1 139.602 0
10176 94.5303 0
6536.09 15.3539 0
4870.55 491.51 0
4882.97 2723.41 0
3301.51 2616.78 0
1869.61 2698.05 0
545.82 4074.99 0
19956 1081.15 0
19687.3 71.5715 0
18020 160.643 0
3300.3 234.906 0
3024.6 1450.9 0
1881.45 970.635 0
368.182 2040.97 0
263.229 2898.92 0
2189.58 25.1443 0
0 0 0
410.167 1061.47 0
1283.43 400.461 0
22.5096 114.183 0
LINES 237 711
2 0 1
2 1 2
2 2 3
2 3 4
2 3 5
2 4 6
2 4 7
2 5 8
2 6 9
2 6 10
2 7 11
2 7 12
2 8 13
2 9 14
2 10 15
2 10 16
2 11 17
2 12 18
2 12 19
2 13 20
2 14 21
2 14 22
2 16 23
2 17 24
2 17 25
2 18 26
2 18 27
2 19 28
2 19 29
2 20 30
2 21 31
2 21 32
2 23 33
2 24 34
2 26 35
2 26 36
2 27 37
2 28 38
2 28 39
2 29 40
2 30 41
2 30 42
2 31 43
2 32 44
2 32 45
2 33 46
2 33 47
2 34 48
2 35 49
2 36 50
2 36 51
2 38 52
2 38 53
2 39 54
2 39 55
2 41 56
2 41 57
2 42 58
2 43 59
2 44 60
2 44 61
2 46 62
2 48 63
2 48 64
2 49 65
2 51 66
2 51 67
2 52 68
2 53 69
2 54 70
2 54 71
2 56 72
2 56 73
2 57 74
2 57 75
2 58 76
2 59 77
2 59 78
2 60 79
2 63 80
2 64 81
2 64 82
2 66 83
2 67 84
2 67 85
2 68 86
2 69 87
2 70 88
2 71 89
2 71 90
2 72 91
2 73 92
2 75 93
2 75 94
2 76 95
2 76 96
2 77 97
2 78 98
2 79 99
2 81 100
2 81 101
2 82 102
2 82 103
2 84 104
2 84 105
2 85 106
2 85 107
2 87 108
2 88 109
2 90 110
2 90 111
2 92 112
2 92 113
2 93 114
2 94 115
2 95 116
2 96 117
2 96 118
2 97 119
2 98 120
2 100 121
2 100 122
2 101 123
2 101 124
2 102 125
2 104 126
2 104 127
2 105 128
2 105 129
2 106 130
2 106 131
2 108 132
2 109 133
2 109 134
2 112 135
2 113 136
2 114 137
2 115 138
2 116 139
2 117 140
2 119 141
2 119 142
2 122 143
2 123 144
2 123 145
2 125 146
2 127 147
2 128 148
2 128 149
2 129 150
2 130 151
2 131 152
2 132 153
2 133 154
2 133 155
2 134 156
2 135 157
2 136 158
2 137 159
2 139 160
2 140 161
2 141 162
2 143 163
2 143 164
2 144 165
2 144 166
2 146 167
2 147 168
2 147 169
2 148 170
2 149 171
2 150 172
2 151 173
2 153 174
2 153 175
2 155 176
2 155 177
2 160 178
2 161 179
2 162 180
2 163 181
2 164 182
2 166 183
2 168 184
2 168 185
2 169 186
2 169 187
2 170 188
2 172 189
2 173 190
2 174 191
2 175 192
2 175 193
2 177 194
2 178 195
2 179 196
2 181 197
2 182 198
2 182 199
2 183 200
2 186 201
2 186 202
2 187 203
2 188 204
2 189 205
2 189 206
2 190 207
2 191 208
2 193 209
2 194 210
2 195 211
2 196 212
2 198 213
2 199 214
2 199 215
2 201 216
2 201 217
2 204 218
2 207 219
2 207 220
2 208 221
2 208 222
2 209 223
2 210 224
2 213 225
2 214 226
2 214 227
2 220 228
2 222 229
2 223 230
2 223 231
2 224 232
2 228 233
2 230 234
2 231 235
2 233 236
2 235 237
POINT_DATA 238
SCALARS terminal float 1
LOOKUP_TABLE default
0
0
0
0
0
0
0
0
0
0
0
0
0
0
0
0
0
0
0
0
0
0
0
0
0
0
0
0
0
0
0
0
0
0
0
0
0
0
0
0
0
0
0
0
0
0
0
0
0
0
0
0
0
0
0
0
0
0
0
0
0
0
0
0
0
0
0
0
0
0
0
0
0
0
0
0
0
0
0
0
0
0
0
0
0
0
0
0
0
0
0
0
0
0
0
0
0
0
0
0
0
0
0
0
0
0
0
0
0
0
0
0
0
0
0
0
0
0
0
0
0
0
0
0
0
0
0
0
0
0
0
0
0
0
0
0
0
0
0
0
0
0
0
0
0
0
0
0
0
0
0
0
0
0
0
0
0
0
0
0
0
0
0
0
0
0
0
0
0
0
0
1
0
0
0
0
0
0
0
0
0
0
0
0
0
0
0
0
0
0
0
0
0
0
0
0
0
0
0
0
0
0
0
0
0
0
0
0
0
0
0
0
0
0
0
0
0
0
0
0
0
0
0
0
0
0
0
0
0
0
0
0
0
0
1
0
0
0
