# vtk DataFile Version 3.0
Lsystem
ASCII
DATASET POLYDATA
POINTS 90 float
10000 20000 0
10000 19800 0
9871.66 19455.5 0
10211.1 18715 0
11539.4 17552.3 0
8802.09 17601.5 0
13146.1 17173.5 0
11474.4 16258.9 0
8788.99 15654.4 0
6727.02 16953.7 0
13834.9 15376.1 0
14613.5 16552.3 0
10409 14551.7 0
4673.12 16596.2 0
6704.46 15364.6 0
15297.4 13981.5 0
12552.3 13528.1 0
16736.6 16362.6 0
10454 12345 0
2744.63 16083.5 0
4290.48 15184.2 0
8279.67 13919.7 0
17460.4 13288.3 0
14956.2 12578.2 0
12815.3 11945.6 0
17981.7 15340.3 0
18782.6 15992.9 0
9113.81 10646.8 0
606.481 16123 0
2185.69 14883 0
4985.35 14216.1 0
8249.65 12239.6 0
19436.4 13075.2 0
17486.2 11783.1 0
15873.1 10960.8 0
14018.2 10363 0
11572.7 10598 0
19593.3 15740.1 0
9956.94 8778.48 0
7295.69 10268 0
323.55 16902.5 0
2422.86 13715.7 0
6035.26 13142.4 0
3960.41 12248.8 0
19964.3 11602.9 0
18453.2 9985.55 0
13841.5 8851.2 0
11588.6 9051.52 0
11128.9 8330.03 0
9559.22 7202.1 0
6313.16 8680.17 0
83.2322 18461.4 0
1395.11 18986.5 0
1483.22 12661.4 0
5555.49 11079.4 0
4114.28 10452.6 0
19789.7 10665.1 0
19862.2 9476.82 0
17614.7 7919.76 0
14995.4 7373.27 0
11465.2 6402.9 0
10425.2 5685.6 0
6879.19 7198.84 0
171.372 19920.8 0
3292.33 19750.9 0
2037.21 10661.2 0
313.985 12183.6 0
2821.02 9102.89 0
19865.4 7552.86 0
18717 6490.83 0
14934.6 5544.27 0
12994.1 4960.88 0
9649.81 4316.5 0
6044.5 5662.77 0
1898.46 19962.8 0
4765.6 19412.7 0
101.524 9745.08 0
3623.22 6827.09 0
19696.9 6764.86 0
19384.2 5927.43 0
18095.6 5151.71 0
16187.4 3781.27 0
12758.1 3640.06 0
10519.9 1721.12 0
8415.74 3512.09 0
6942.32 3692.45 0
4452.05 4395.76 0
6246.87 18864.4 0
414.161 8274.64 0
2842.37 5892.03 0
LINES 89 267
2 0 1
2 1 2
2 2 3
2 3 4
2 3 5
2 4 6
2 4 7
2 5 8
2 5 9
2 6 10
2 6 11
2 8 12
2 9 13
2 9 14
2 10 15
2 10 16
2 11 17
2 12 18
2 13 19
2 13 20
2 14 21
2 15 22
2 15 23
2 16 24
2 17 25
2 17 26
2 18 27
2 19 28
2 19 29
2 20 30
2 21 31
2 22 32
2 22 33
2 23 34
2 24 35
2 24 36
2 26 37
2 27 38
2 27 39
2 28 40
2 29 41
2 30 42
2 30 43
2 32 44
2 33 45
2 35 46
2 36 47
2 38 48
2 38 49
2 39 50
2 40 51
2 40 52
2 41 53
2 42 54
2 43 55
2 44 56
2 45 57
2 45 58
2 46 59
2 48 60
2 49 61
2 50 62
2 51 63
2 52 64
2 53 65
2 53 66
2 55 67
2 57 68
2 58 69
2 59 70
2 60 71
2 61 72
2 62 73
2 63 74
2 64 75
2 66 76
2 67 77
2 68 78
2 69 79
2 69 80
2 70 81
2 71 82
2 72 83
2 72 84
2 73 85
2 73 86
2 75 87
2 76 88
2 77 89
POINT_DATA 90
SCALARS terminal float 1
LOOKUP_TABLE default
0
0
0
0
0
0
0
0
0
0
0
0
0
0
0
0
0
0
0
0
0
0
0
0
0
0
0
0
0
0
0
0
0
0
0
0
0
0
0
0
0
0
0
0
0
0
0
0
0
0
0
0
0
0
0
0
0
0
0
0
0
0
0
0
0
0
0
0
0
0
0
0
0
0
0
0
0
0
0
0
0
0
0
1
0
0
0
0
0
0
