# vtk DataFile Version 4.1
vtk output
ASCII
DATASET POLYDATA
POINTS 160 float
100 9850 50 150 10550 50 100 9850 50 
2050 9750 50 65 9920 50 50 9950 50 
1030 10078 50 1750 10750 50 1744 9848.4 50 
3050 10550 50 2865.38 10318.6 50 4250 10250 50 
3834.61 10270.6 50 4550 9050 50 4200.92 10290.1 50 
5650 10450 50 4424.38 9588.85 50 5850 9150 50 
4983.42 10376.5 50 5450 11550 50 5272.7 11104.1 50 
6550 11250 50 5422.32 9281.65 50 5850 8050 50 
5799.88 9217.14 50 7050 9150 50 5721.69 8419.5 50 
6950 8050 50 5471.58 11448.6 50 6250 12450 50 
6345.13 11308.6 50 7550 11950 50 5868.56 8126.44 50 
6450 7250 50 6252.9 12269.5 50 7150 12950 50 
6758.36 8191.76 50 7950 8350 50 6892.51 8092.53 50 
7550 7050 50 7456.83 11964.1 50 8250 12550 50 
7602.93 8196.62 50 8450 7650 50 7030.93 12928.3 50 
7750 13650 50 8153.52 7715.32 50 8450 6750 50 
7821.69 12233.6 50 8650 11850 50 7395.6 7131.61 50 
7750 6150 50 7610.33 13369.4 50 8550 13450 50 
6747.29 12840.7 50 6950 13950 50 8205.83 12441.9 50 
9250 12750 50 8361.06 7669.59 50 9050 8150 50 
8361.06 7039.59 50 9250 6750 50 7667.59 13610.4 50 
7750 14550 50 8432.64 6771.69 50 8650 5850 50 
8843.32 8005.88 50 9650 7650 50 7698.91 13967.5 50 
8550 14350 50 8538.36 11953.6 50 9450 11850 50 
8538.32 13462.2 50 9350 13550 50 9199.66 12636 50 
10050 12750 50 9161.54 6842.67 50 9950 6750 50 
9223.46 6777.8 50 9550 5950 50 7802.12 14430.1 50 
8250 15150 50 7748.94 6161.59 50 8050 5350 50 
9587.86 7735.88 50 10350 7550 50 8720.44 5976.94 50 
9150 5250 50 6901.35 13907.8 50 6950 14750 50 
7006.86 14606.6 50 7450 15350 50 8361.65 14367.6 50 
8850 14850 50 9427.21 11874.9 50 10150 11850 50 
9314.26 13521.9 50 10150 13550 50 10024.8 11912.7 50 
10650 12250 50 8093.66 5469.71 50 8550 4850 50 
7448.2 15252.1 50 7950 15850 50 10459.2 12229.9 50 
10850 12950 50 9849.12 6789.02 50 10750 6850 50 
9557.51 6046.9 50 9950 5350 50 9012.54 5314.62 50 
9150 4650 50 9086.77 4955.73 50 9750 4750 50 
10060.4 7620.63 50 10550 8150 50 10323.5 7580.37 50 
11050 7550 50 10078.6 13569 50 10850 13650 50 
10636.7 12239.8 50 11250 12250 50 10729.8 6863.37 50 
11450 6950 50 11066 12246.9 50 11550 12850 50 
9178.81 4711.46 50 9550 4150 50 9964.4 5461.01 50 
10450 4950 50 10743.9 6854.01 50 10950 6250 50 
9626.93 4735.55 50 10150 4250 50 10771.1 13596.1 50 
11450 13550 50 11043.6 7557.29 50 11650 7550 50 
11240.9 12248.7 50 11750 12250 50 11535.1 12713 50 
12050 13050 50 11233.9 6924.01 50 11650 6350 50 
11441.1 6952.82 50 12050 7050 50 9994.77 4311.1 50 
10050 3750 50 10103.4 4268.33 50 10750 4350 50 
11730.8 12841.1 50 12250 12550 50 10024.6 4008.1 50 
10650 3750 50 11624 7580.33 50 12250 7650 50 
11350.7 13590.4 50 12050 13750 50 11818.6 7013.07 50 
12250 6450 50 
LINES 159 477
2 4 1 
2 0 2 
2 8 3 
2 2 4 
2 4 5 
2 2 6 
2 6 7 
2 6 8 
2 10 9 
2 8 10 
2 14 11 
2 10 12 
2 16 13 
2 12 14 
2 18 15 
2 12 16 
2 24 17 
2 14 18 
2 28 19 
2 18 20 
2 30 21 
2 16 22 
2 32 23 
2 22 24 
2 24 25 
2 22 26 
2 38 27 
2 20 28 
2 34 29 
2 20 30 
2 40 31 
2 26 32 
2 32 33 
2 28 34 
2 44 35 
2 26 36 
2 42 37 
2 36 38 
2 50 39 
2 30 40 
2 56 41 
2 36 42 
2 58 43 
2 54 44 
2 62 45 
2 42 46 
2 64 47 
2 40 48 
2 70 49 
2 38 50 
2 82 51 
2 44 52 
2 72 53 
2 34 54 
2 88 55 
2 48 56 
2 74 57 
2 46 58 
2 66 59 
2 46 60 
2 78 61 
2 52 62 
2 80 63 
2 60 64 
2 86 65 
2 58 66 
2 84 67 
2 62 68 
2 92 69 
2 48 70 
2 94 71 
2 52 72 
2 96 73 
2 56 74 
2 74 75 
2 60 76 
2 106 77 
2 76 78 
2 108 79 
2 68 80 
2 80 81 
2 50 82 
2 100 83 
2 66 84 
2 116 85 
2 64 86 
2 110 87 
2 54 88 
2 90 89 
2 88 90 
2 102 91 
2 68 92 
2 92 93 
2 70 94 
2 98 95 
2 72 96 
2 118 97 
2 94 98 
2 120 99 
2 82 100 
2 100 101 
2 90 102 
2 102 103 
2 98 104 
2 104 105 
2 76 106 
2 130 107 
2 78 108 
2 128 109 
2 86 110 
2 126 111 
2 110 112 
2 132 113 
2 84 114 
2 114 115 
2 114 116 
2 136 117 
2 96 118 
2 134 119 
2 104 120 
2 138 121 
2 106 122 
2 144 123 
2 120 124 
2 140 125 
2 112 126 
2 126 127 
2 108 128 
2 128 129 
2 122 130 
2 130 131 
2 112 132 
2 148 133 
2 118 134 
2 156 135 
2 116 136 
2 154 137 
2 124 138 
2 138 139 
2 124 140 
2 150 141 
2 122 142 
2 142 143 
2 142 144 
2 158 145 
2 132 146 
2 152 147 
2 146 148 
2 148 149 
2 140 150 
2 150 151 
2 146 152 
2 152 153 
2 136 154 
2 154 155 
2 134 156 
2 156 157 
2 144 158 
2 158 159 

CELL_DATA 159
SCALARS radius float
LOOKUP_TABLE default
92.9635 100 89.6332 96.4176 92.9635 96.4176 92.9635 92.9635 86.4222 
89.6332 80.3411 86.4222 80.3411 83.3262 77.463 83.3262 74.6879 80.3411 
72.0123 77.463 72.0123 80.3411 72.0123 77.463 74.6879 77.463 69.4326 
74.6879 69.4326 74.6879 69.4326 74.6879 72.0123 72.0123 64.547 74.6879 
69.4326 72.0123 66.9452 72.0123 64.547 72.0123 64.547 66.9452 60.0051 
69.4326 62.2346 69.4326 64.547 69.4326 64.547 64.547 60.0051 69.4326 
64.547 66.9452 62.2346 66.9452 62.2346 66.9452 60.0051 62.2346 55.7829 
64.547 60.0051 64.547 60.0051 60.0051 55.7829 66.9452 62.2346 62.2346 
57.8555 64.547 62.2346 64.547 60.0051 62.2346 57.8555 57.8555 55.7829 
66.9452 62.2346 62.2346 55.7829 62.2346 57.8555 66.9452 62.2346 64.547 
60.0051 57.8555 55.7829 64.547 60.0051 60.0051 55.7829 62.2346 55.7829 
64.547 62.2346 62.2346 60.0051 60.0051 57.8555 62.2346 55.7829 60.0051 
55.7829 60.0051 53.7845 57.8555 53.7845 60.0051 57.8555 57.8555 53.7845 
57.8555 53.7845 57.8555 51.8578 60.0051 53.7845 55.7829 51.8578 55.7829 
53.7845 57.8555 55.7829 57.8555 55.7829 55.7829 50 55.7829 51.8578 
55.7829 51.8578 53.7845 51.8578 53.7845 50 57.8555 55.7829 55.7829 
51.8578 53.7845 50 51.8578 50 51.8578 50 51.8578 50 
53.7845 51.8578 53.7845 51.8578 53.7845 51.8578 
