# vtk DataFile Version 4.1
vtk output
ASCII
DATASET POLYDATA
POINTS 160 float
100 9850 50 150 10550 50 100 9850 50 
1950 9650 50 65 9920 50 50 9950 50 
124.5 10361 50 1250 10950 50 1576.5 9830 50 
2850 10550 50 2688.16 10313.6 50 4150 10250 50 
3711.45 10269.1 50 4450 9050 50 4087.25 10303.3 50 
5550 10550 50 4359.51 9462.68 50 5650 8950 50 
5262.85 9103.8 50 6450 9750 50 5111.18 10476 50 
5550 11750 50 5459.09 10590.3 50 6750 11150 50 
5620.55 8986.44 50 6850 8650 50 6362.73 10982.1 50 
6550 12150 50 5641.17 8960.93 50 5750 7850 50 
6481.17 8750.93 50 6750 7550 50 6709.47 11161.8 50 
7650 11750 50 6758.39 8611.55 50 7750 7950 50 
6611.44 11932.7 50 7350 12850 50 6789.41 7804.25 50 
7550 7050 50 7517.03 11785.8 50 8250 12550 50 
7708.01 7968.77 50 8450 7450 50 7244.73 12846.6 50 
7750 13650 50 7436.58 7035.07 50 7950 6350 50 
7971.47 12259.6 50 8850 12050 50 8250.52 12518.4 50 
8950 13050 50 7737.4 7955.63 50 8750 8250 50 
8408.56 7504.01 50 9150 7050 50 7909.38 6492.97 50 
8650 6050 50 7558 13344.7 50 7050 14250 50 
7283.68 13833.6 50 7750 14650 50 7692.4 13558.4 50 
8650 13950 50 8690.31 7331.48 50 9550 7850 50 
8792.87 12145.1 50 9650 12150 50 9392.86 12148.5 50 
9850 12850 50 9223.32 7652.96 50 9950 7250 50 
7937.81 6392.89 50 7850 5550 50 8362.72 13832.5 50 
8550 14750 50 9095.88 7042 50 9650 6450 50 
8506.03 6071.6 50 9050 5350 50 8866.16 13047.9 50 
9450 13650 50 7572.8 14339.8 50 7150 15050 50 
9500.39 6511.84 50 9650 5750 50 7701.8 14628.6 50 
7950 15450 50 8645.06 5733.75 50 8450 5050 50 
9637.43 12149.4 50 10350 12150 50 9673.86 7403.13 50 
10350 7850 50 9787.72 12821.5 50 10150 13550 50 
9605.12 6468.55 50 10350 6550 50 8533.05 14725.8 50 
8650 15450 50 9831.31 12841.5 50 10750 12850 50 
10145.3 6605.49 50 10750 7150 50 8954.67 5369.61 50 
9150 4750 50 9044.52 5084.59 50 9750 4950 50 
9679.6 5913.7 50 10150 5450 50 10318 12177.8 50 
11050 12250 50 10121.2 13309 50 10850 13650 50 
10279.4 7729.34 50 11150 7850 50 10908.4 12300.5 50 
11450 12750 50 10343.6 6564.3 50 11050 6450 50 
10888.8 7813.8 50 11450 7250 50 9174.64 4823.87 50 
9650 4250 50 9692.25 4937.07 50 10350 4750 50 
10737.2 13529.9 50 11450 13450 50 10964 6542.58 50 
11550 6650 50 10100.1 4821.09 50 10250 4150 50 
11330.4 12564.7 50 11950 12550 50 11142.6 7837.33 50 
11750 7850 50 11438.4 7374.42 50 12050 7050 50 
11714.6 12555.6 50 12050 13150 50 11007.5 12265.2 50 
11650 11950 50 9521.65 4320.95 50 9650 3650 50 
10181 4458.7 50 10850 4250 50 10542.3 4346 50 
10650 3750 50 11400.9 6556.4 50 11950 6250 50 
11959.4 13073.5 50 12050 13750 50 11913.9 12580.8 50 
12550 12750 50 11670 7818.58 50 12350 7650 50 
12022.8 13127.1 50 12550 13350 50 12033.7 7044.03 50 
12550 6750 50 
LINES 159 477
2 6 1 
2 0 2 
2 8 3 
2 2 4 
2 4 5 
2 4 6 
2 6 7 
2 2 8 
2 10 9 
2 8 10 
2 14 11 
2 10 12 
2 16 13 
2 12 14 
2 22 15 
2 12 16 
2 28 17 
2 16 18 
2 18 19 
2 14 20 
2 20 21 
2 20 22 
2 32 23 
2 18 24 
2 34 25 
2 22 26 
2 36 27 
2 24 28 
2 28 29 
2 24 30 
2 38 31 
2 26 32 
2 40 33 
2 30 34 
2 52 35 
2 26 36 
2 44 37 
2 30 38 
2 46 39 
2 32 40 
2 50 41 
2 34 42 
2 54 43 
2 36 44 
2 62 45 
2 38 46 
2 72 47 
2 40 48 
2 66 49 
2 48 50 
2 80 51 
2 42 52 
2 52 53 
2 42 54 
2 76 55 
2 46 56 
2 78 57 
2 44 58 
2 60 59 
2 58 60 
2 86 61 
2 58 62 
2 74 63 
2 54 64 
2 70 65 
2 48 66 
2 90 67 
2 66 68 
2 100 69 
2 64 70 
2 92 71 
2 56 72 
2 72 73 
2 62 74 
2 98 75 
2 64 76 
2 96 77 
2 56 78 
2 104 79 
2 50 80 
2 80 81 
2 60 82 
2 82 83 
2 76 84 
2 108 85 
2 82 86 
2 86 87 
2 78 88 
2 88 89 
2 68 90 
2 110 91 
2 70 92 
2 114 93 
2 68 94 
2 112 95 
2 84 96 
2 118 97 
2 74 98 
2 98 99 
2 94 100 
2 100 101 
2 96 102 
2 102 103 
2 88 104 
2 122 105 
2 104 106 
2 124 107 
2 84 108 
2 108 109 
2 90 110 
2 140 111 
2 94 112 
2 126 113 
2 92 114 
2 134 115 
2 110 116 
2 132 117 
2 102 118 
2 128 119 
2 114 120 
2 136 121 
2 106 122 
2 142 123 
2 106 124 
2 130 125 
2 112 126 
2 126 127 
2 118 128 
2 148 129 
2 124 130 
2 144 131 
2 116 132 
2 152 133 
2 120 134 
2 154 135 
2 120 136 
2 158 137 
2 132 138 
2 156 139 
2 116 140 
2 140 141 
2 122 142 
2 142 143 
2 130 144 
2 146 145 
2 144 146 
2 146 147 
2 128 148 
2 148 149 
2 138 150 
2 150 151 
2 138 152 
2 152 153 
2 134 154 
2 154 155 
2 150 156 
2 156 157 
2 136 158 
2 158 159 

CELL_DATA 159
SCALARS radius float
LOOKUP_TABLE default
89.6332 100 92.9635 96.4176 92.9635 92.9635 89.6332 96.4176 89.6332 
92.9635 83.3262 89.6332 83.3262 86.4222 77.463 86.4222 74.6879 83.3262 
80.3411 83.3262 80.3411 80.3411 72.0123 80.3411 72.0123 77.463 72.0123 
77.463 74.6879 77.463 72.0123 74.6879 69.4326 74.6879 66.9452 74.6879 
69.4326 74.6879 69.4326 72.0123 64.547 72.0123 66.9452 72.0123 64.547 
72.0123 64.547 69.4326 64.547 66.9452 62.2346 69.4326 66.9452 69.4326 
62.2346 69.4326 64.547 69.4326 64.547 66.9452 60.0051 66.9452 62.2346 
66.9452 62.2346 66.9452 60.0051 64.547 57.8555 64.547 60.0051 66.9452 
64.547 64.547 60.0051 64.547 57.8555 66.9452 60.0051 64.547 62.2346 
64.547 62.2346 62.2346 57.8555 62.2346 60.0051 64.547 62.2346 62.2346 
57.8555 62.2346 57.8555 62.2346 57.8555 60.0051 53.7845 62.2346 60.0051 
60.0051 57.8555 57.8555 55.7829 62.2346 55.7829 60.0051 55.7829 60.0051 
57.8555 60.0051 53.7845 60.0051 55.7829 60.0051 53.7845 57.8555 53.7845 
55.7829 51.8578 57.8555 53.7845 57.8555 53.7845 57.8555 53.7845 57.8555 
55.7829 53.7845 50 55.7829 51.8578 55.7829 50 55.7829 51.8578 
55.7829 51.8578 53.7845 48.2088 55.7829 53.7845 55.7829 53.7845 53.7845 
50 51.8578 50 51.8578 50 51.8578 50 51.8578 50 
53.7845 51.8578 50 48.2088 53.7845 51.8578 
