# vtk DataFile Version 4.1
vtk output
ASCII
DATASET POLYDATA
POINTS 160 float
100 9850 50 150 10650 50 100 9850 50 
2050 10150 50 75 10010 50 50 10050 50 
685 9940 50 1450 9050 50 1575.05 9919.7 50 
2850 9150 50 2687.76 9399.82 50 4150 9450 50 
3881.2 9576.45 50 5050 10450 50 4512.35 10048.2 50 
5750 9450 50 5044.83 10425.5 50 6050 11050 50 
5180.68 9725.16 50 5250 8450 50 5603.19 9428.32 50 
6450 8450 50 5748.45 10862.7 50 5750 12050 50 
5998.09 11065.5 50 6950 11950 50 6060.47 8900.03 50 
7250 9150 50 6369.66 8467.51 50 6850 7450 50 
6893.14 9075.01 50 7750 8250 50 6692.98 11851.2 50 
6950 12950 50 6938.36 11947.7 50 7950 12350 50 
6846.31 7668.73 50 7750 7050 50 7035.75 12738.4 50 
7550 13450 50 7699.8 8346 50 8550 7650 50 
7395.73 13236.5 50 8450 13250 50 7878.28 12249.3 50 
8850 12450 50 7406.6 7285.12 50 7350 6250 50 
7376.03 6726.15 50 8250 6150 50 7796.35 13241.6 50 
8250 14050 50 8417.94 7648.72 50 9050 6850 50 
7503.72 13386 50 7150 14250 50 8247.53 12325.5 50 
8850 11650 50 8799.33 12402.4 50 9650 12350 50 
8510.38 7649.62 50 9550 7850 50 8399.51 13275.7 50 
9350 13450 50 8194.33 6250.37 50 9050 5850 50 
8035.22 13879.1 50 7850 14850 50 9242.13 7695.87 50 
9950 7250 50 8233.3 6180.11 50 7850 5550 50 
9191.37 13347 50 10050 13050 50 8179.28 14047.2 50 
8650 14750 50 9043.74 6993.59 50 9750 6450 50 
8587.94 6066.2 50 8650 5050 50 8944.28 5841.67 50 
9450 5250 50 7970.01 14671.8 50 8350 15450 50 
9601.79 12366.8 50 10450 12350 50 7886 14796.6 50 
7150 15250 50 9529.62 7797.72 50 10350 7950 50 
10026.3 13117.9 50 10750 12950 50 9870.88 7356.38 50 
10750 7150 50 9657.31 6596.77 50 10450 6450 50 
7606.32 14968.9 50 7650 15850 50 9737.31 6452.59 50 
10050 5850 50 8770.14 5235.18 50 9150 4550 50 
9775.83 13186.6 50 10350 13750 50 9440.63 5252 50 
9850 4750 50 10498.3 7292.23 50 11150 7650 50 
10346.6 12271.4 50 11050 12050 50 10731.9 7143.78 50 
11250 6750 50 10839 12116.4 50 11450 12650 50 
9694.44 4940.76 50 10350 5050 50 10247 13538.8 50 
11050 13650 50 9803.33 4807.23 50 9650 4150 50 
10970.2 6962.64 50 11650 7250 50 9836 4767.17 50 
10350 4350 50 11338.5 12647.3 50 11750 13250 50 
11331.3 7033.45 50 11850 6750 50 11166.1 6813.79 50 
11150 6150 50 11416.5 12649.2 50 11850 12150 50 
10115 4445.38 50 10250 3750 50 11461.9 12828.1 50 
12250 12750 50 11081.5 7647.51 50 11650 8050 50 
11648 7233.53 50 12250 7550 50 10279.5 4378.61 50 
10950 4650 50 11004.9 13692.9 50 11650 13850 50 
11876.7 7353.79 50 12450 6950 50 11733.2 13130.3 50 
12350 13450 50 11682.5 6765.21 50 11950 6150 50 
12168.4 12862.9 50 12750 12950 50 12225.5 12783.9 50 
12450 12150 50 12309.2 6975.02 50 12550 6350 50 
12407.8 6957.51 50 12850 7350 50 12165 13354.1 50 
12250 13950 50 
LINES 159 477
2 4 1 
2 0 2 
2 8 3 
2 2 4 
2 4 5 
2 2 6 
2 6 7 
2 6 8 
2 10 9 
2 8 10 
2 12 11 
2 10 12 
2 16 13 
2 12 14 
2 20 15 
2 14 16 
2 24 17 
2 14 18 
2 18 19 
2 18 20 
2 28 21 
2 16 22 
2 22 23 
2 22 24 
2 34 25 
2 20 26 
2 30 27 
2 26 28 
2 36 29 
2 26 30 
2 40 31 
2 24 32 
2 38 33 
2 32 34 
2 44 35 
2 28 36 
2 46 37 
2 32 38 
2 54 39 
2 30 40 
2 60 41 
2 38 42 
2 62 43 
2 34 44 
2 58 45 
2 36 46 
2 48 47 
2 46 48 
2 70 49 
2 42 50 
2 74 51 
2 40 52 
2 76 53 
2 42 54 
2 54 55 
2 44 56 
2 56 57 
2 56 58 
2 84 59 
2 52 60 
2 88 61 
2 50 62 
2 72 63 
2 48 64 
2 80 65 
2 50 66 
2 86 67 
2 60 68 
2 92 69 
2 64 70 
2 70 71 
2 62 72 
2 90 73 
2 66 74 
2 74 75 
2 52 76 
2 98 77 
2 64 78 
2 100 79 
2 78 80 
2 104 81 
2 66 82 
2 82 83 
2 58 84 
2 108 85 
2 82 86 
2 96 87 
2 68 88 
2 88 89 
2 102 90 
2 90 91 
2 68 92 
2 110 93 
2 76 94 
2 94 95 
2 86 96 
2 96 97 
2 94 98 
2 98 99 
2 78 100 
2 100 101 
2 72 102 
2 116 103 
2 80 104 
2 122 105 
2 92 106 
2 136 107 
2 84 108 
2 112 109 
2 106 110 
2 128 111 
2 108 112 
2 130 113 
2 104 114 
2 114 115 
2 102 116 
2 142 117 
2 114 118 
2 118 119 
2 110 120 
2 138 121 
2 118 122 
2 140 123 
2 112 124 
2 146 125 
2 120 126 
2 148 127 
2 120 128 
2 128 129 
2 124 130 
2 130 131 
2 122 132 
2 132 133 
2 124 134 
2 152 135 
2 106 136 
2 136 137 
2 126 138 
2 144 139 
2 132 140 
2 140 141 
2 116 142 
2 142 143 
2 138 144 
2 156 145 
2 134 146 
2 158 147 
2 126 148 
2 148 149 
2 134 150 
2 150 151 
2 150 152 
2 152 153 
2 144 154 
2 154 155 
2 154 156 
2 156 157 
2 146 158 
2 158 159 

CELL_DATA 159
SCALARS radius float
LOOKUP_TABLE default
92.9635 100 89.6332 96.4176 92.9635 96.4176 92.9635 92.9635 86.4222 
89.6332 83.3262 86.4222 77.463 83.3262 74.6879 80.3411 72.0123 80.3411 
77.463 77.463 69.4326 77.463 74.6879 74.6879 66.9452 74.6879 69.4326 
72.0123 66.9452 72.0123 66.9452 72.0123 66.9452 69.4326 64.547 69.4326 
64.547 69.4326 62.2346 69.4326 62.2346 66.9452 60.0051 66.9452 60.0051 
66.9452 62.2346 64.547 57.8555 64.547 57.8555 66.9452 62.2346 64.547 
62.2346 64.547 62.2346 62.2346 57.8555 64.547 57.8555 62.2346 57.8555 
62.2346 55.7829 62.2346 55.7829 62.2346 57.8555 60.0051 57.8555 60.0051 
53.7845 60.0051 57.8555 64.547 57.8555 60.0051 55.7829 57.8555 53.7845 
60.0051 57.8555 60.0051 55.7829 57.8555 53.7845 60.0051 57.8555 55.7829 
53.7845 60.0051 53.7845 62.2346 60.0051 55.7829 53.7845 60.0051 57.8555 
57.8555 55.7829 57.8555 53.7845 55.7829 48.2088 57.8555 53.7845 57.8555 
53.7845 55.7829 50 55.7829 50 53.7845 51.8578 55.7829 51.8578 
51.8578 50 53.7845 48.2088 50 44.8166 53.7845 48.2088 51.8578 
48.2088 51.8578 50 51.8578 50 48.2088 46.4818 51.8578 46.4818 
55.7829 53.7845 50 46.4818 46.4818 44.8166 53.7845 51.8578 48.2088 
43.2111 50 46.4818 50 48.2088 50 48.2088 48.2088 46.4818 
46.4818 44.8166 44.8166 43.2111 48.2088 46.4818 
