# vtk DataFile Version 4.1
vtk output
ASCII
DATASET POLYDATA
POINTS 160 float
100 9850 50 50 9250 50 100 9850 50 
2050 10250 50 65 9780 50 50 9750 50 
685 9970 50 1450 9050 50 1849.45 10104.4 50 
3250 9750 50 2829.84 9856.32 50 3850 10850 50 
3231.72 9734.22 50 4650 9250 50 4293.6 9531.48 50 
5650 10050 50 5026.06 9811.48 50 5250 11250 50 
4621.72 9346.07 50 5950 8750 50 5557.62 10078.5 50 
6550 10850 50 6252.29 10618.6 50 6250 11850 50 
5625.1 9042.63 50 6950 9350 50 5826.3 8759.24 50 
6250 7750 50 6552.53 9257.79 50 7350 8350 50 
6524.17 10858 50 7450 11750 50 6362.73 11707.9 50 
6650 12750 50 6310.42 7904.96 50 6950 7150 50 
6563.82 12437.4 50 7650 12750 50 7262.81 8388.49 50 
7950 7450 50 7451.8 11619.9 50 8250 12050 50 
6976.57 12556.2 50 7250 13550 50 7736.46 7563.39 50 
7750 6450 50 7498.3 12780.2 50 8250 13450 50 
8118.49 12031.9 50 8850 12750 50 7323.84 8361.55 50 
8550 8250 50 7885.94 7484.02 50 8950 7150 50 
7745.94 6784.02 50 8550 6350 50 7274.5 13428 50 
7650 14250 50 8210.55 12044.6 50 9050 11850 50 
8451.72 8192.77 50 9250 7950 50 7600.54 13896.5 50 
8450 14250 50 8671.92 12744.2 50 9050 13550 50 
8854.19 11988.1 50 9750 12350 50 8115.81 6584.37 50 
8150 5550 50 8749.5 7088.89 50 9450 6550 50 
9450.47 12335.3 50 9850 13150 50 9071.73 6841 50 
9950 7250 50 9336.52 6637.3 50 9250 5750 50 
7670.73 14210 50 7950 15050 50 7656.22 14238 50 
7150 14850 50 8224.77 5787.28 50 8750 5250 50 
9726.87 7237.57 50 10050 7950 50 7866.22 14798 50 
8650 14950 50 9634.25 12710.1 50 10450 12750 50 
9415.96 6576.19 50 10150 6550 50 9934.2 7229.66 50 
10650 7150 50 9329.36 5905.57 50 9650 5150 50 
9660.14 12345.6 50 10350 11950 50 7924.87 14974.4 50 
7450 15650 50 7942.46 15027.3 50 8350 15750 50 
9858.49 13052 50 10450 13550 50 8693.93 5281.93 50 
9150 4750 50 9953.06 7736.27 50 10750 7850 50 
10299.7 12683.2 50 10950 12350 50 9331.51 6125.09 50 
10150 5650 50 10404.9 12730 50 11050 13150 50 
10083.1 6502.38 50 10750 6350 50 10635 7729.61 50 
11250 7550 50 9603.4 5195.78 50 9850 4450 50 
11065.5 7603.88 50 11350 6850 50 9636.02 5163.73 50 
10350 4950 50 10806.4 12508.6 50 11550 12650 50 
9060.06 4752.22 50 9350 4150 50 10428.7 13446.6 50 
11050 13750 50 10946.8 12388.9 50 11450 12050 50 
11011.6 13099.6 50 11650 13450 50 11239.9 7549.48 50 
11850 7350 50 10114.1 4940.81 50 10450 4350 50 
9818.81 4460.99 50 9950 3850 50 11452.1 12688.8 50 
12050 12950 50 11357.2 7025.55 50 11950 6650 50 
11247 7549.84 50 11550 8050 50 10704.6 6342.76 50 
11350 6150 50 11520.6 12661.6 50 12050 12250 50 
10370.5 4399.06 50 10550 3850 50 11834.3 7339.81 50 
12350 7150 50 10426.2 4364.72 50 10950 4650 50 
11608.8 13449.9 50 12050 13750 50 11845.3 7346.94 50 
12150 7850 50 
LINES 159 477
2 4 1 
2 0 2 
2 8 3 
2 2 4 
2 4 5 
2 2 6 
2 6 7 
2 6 8 
2 12 9 
2 8 10 
2 10 11 
2 10 12 
2 18 13 
2 12 14 
2 20 15 
2 14 16 
2 16 17 
2 14 18 
2 26 19 
2 16 20 
2 30 21 
2 20 22 
2 32 23 
2 18 24 
2 28 25 
2 24 26 
2 34 27 
2 24 28 
2 50 29 
2 22 30 
2 40 31 
2 22 32 
2 36 33 
2 26 34 
2 34 35 
2 32 36 
2 46 37 
2 28 38 
2 52 39 
2 30 40 
2 58 41 
2 36 42 
2 56 43 
2 38 44 
2 54 45 
2 42 46 
2 46 47 
2 40 48 
2 64 49 
2 38 50 
2 60 51 
2 44 52 
2 70 53 
2 44 54 
2 68 55 
2 42 56 
2 80 57 
2 48 58 
2 66 59 
2 50 60 
2 60 61 
2 56 62 
2 62 63 
2 48 64 
2 64 65 
2 58 66 
2 96 67 
2 54 68 
2 82 69 
2 52 70 
2 90 71 
2 66 72 
2 102 73 
2 70 74 
2 92 75 
2 74 76 
2 94 77 
2 62 78 
2 100 79 
2 78 80 
2 80 81 
2 68 82 
2 104 83 
2 74 84 
2 106 85 
2 78 86 
2 86 87 
2 72 88 
2 112 89 
2 76 90 
2 114 91 
2 84 92 
2 92 93 
2 110 94 
2 122 95 
2 72 96 
2 96 97 
2 86 98 
2 98 99 
2 98 100 
2 100 101 
2 88 102 
2 128 103 
2 82 104 
2 126 105 
2 84 106 
2 116 107 
2 88 108 
2 130 109 
2 76 110 
2 110 111 
2 108 112 
2 132 113 
2 90 114 
2 146 115 
2 106 116 
2 144 117 
2 94 118 
2 138 119 
2 116 120 
2 142 121 
2 118 122 
2 136 123 
2 108 124 
2 148 125 
2 104 126 
2 126 127 
2 102 128 
2 128 129 
2 124 130 
2 130 131 
2 112 132 
2 156 133 
2 120 134 
2 158 135 
2 122 136 
2 154 137 
2 118 138 
2 138 139 
2 124 140 
2 140 141 
2 120 142 
2 142 143 
2 134 144 
2 144 145 
2 114 146 
2 146 147 
2 140 148 
2 148 149 
2 136 150 
2 150 151 
2 134 152 
2 152 153 
2 150 154 
2 154 155 
2 132 156 
2 156 157 
2 152 158 
2 158 159 

CELL_DATA 159
SCALARS radius float
LOOKUP_TABLE default
92.9635 100 89.6332 96.4176 92.9635 96.4176 92.9635 92.9635 83.3262 
89.6332 86.4222 86.4222 77.463 83.3262 74.6879 80.3411 77.463 80.3411 
72.0123 77.463 69.4326 74.6879 69.4326 77.463 72.0123 74.6879 69.4326 
74.6879 66.9452 72.0123 66.9452 72.0123 66.9452 72.0123 69.4326 69.4326 
62.2346 72.0123 64.547 69.4326 62.2346 66.9452 62.2346 69.4326 64.547 
64.547 62.2346 66.9452 62.2346 69.4326 64.547 66.9452 62.2346 66.9452 
62.2346 64.547 55.7829 64.547 60.0051 66.9452 64.547 62.2346 60.0051 
64.547 62.2346 62.2346 55.7829 64.547 60.0051 64.547 55.7829 60.0051 
53.7845 62.2346 55.7829 60.0051 53.7845 60.0051 51.8578 57.8555 55.7829 
62.2346 57.8555 60.0051 55.7829 57.8555 55.7829 57.8555 51.8578 57.8555 
53.7845 57.8555 55.7829 55.7829 50 57.8555 55.7829 55.7829 53.7845 
53.7845 51.8578 55.7829 51.8578 60.0051 55.7829 57.8555 53.7845 55.7829 
50 57.8555 55.7829 53.7845 50 55.7829 51.8578 55.7829 48.2088 
53.7845 50 53.7845 50 51.8578 48.2088 53.7845 48.2088 57.8555 
55.7829 53.7845 51.8578 51.8578 50 51.8578 48.2088 51.8578 46.4818 
50 44.8166 51.8578 50 51.8578 50 51.8578 50 50 
48.2088 53.7845 51.8578 50 48.2088 48.2088 46.4818 50 48.2088 
46.4818 44.8166 50 48.2088 48.2088 46.4818 
