# vtk DataFile Version 4.1
vtk output
ASCII
DATASET POLYDATA
POINTS 160 float
100 9850 50 150 10650 50 100 9850 50 
2050 10150 50 65 9920 50 50 9950 50 
685 9940 50 1450 9050 50 1849.45 10037.3 50 
3250 9750 50 2759.76 10013.5 50 4050 10750 50 
3207.2 9765.32 50 4450 9050 50 3973.12 10570.3 50 
5250 10950 50 4943.09 10705.1 50 6250 10150 50 
4360.3 9138.9 50 5550 8550 50 5244.03 10942.7 50 
6150 11650 50 5981.14 10159.9 50 6850 9150 50 
6587.41 9268.67 50 6650 8050 50 5878.21 11437.8 50 
7250 11150 50 6123.39 11639.8 50 6950 12350 50 
6771.22 9185.6 50 7650 8450 50 6786.69 12059.4 50 
7850 12050 50 6703.1 8239.04 50 7150 7050 50 
7480.79 8433.39 50 8050 7550 50 6964.71 12313.8 50 
7650 13150 50 7646.91 12136.5 50 8450 12650 50 
7910.31 7662.52 50 8150 6650 50 7146.4 7100.82 50 
7450 6350 50 7334.77 12765.4 50 6950 13750 50 
7542.45 13110.6 50 7850 14050 50 8008.09 7583.75 50 
8950 7950 50 7789.07 12076 50 8750 11750 50 
8001.39 7277.76 50 9050 6950 50 7733.13 13693 50 
8550 13850 50 8497.68 11934.1 50 9350 12250 50 
7452.03 6468.72 50 8050 5750 50 8362.1 13725.1 50 
9250 13350 50 8735.42 7048.33 50 8950 6050 50 
8955.63 6979.5 50 9650 7550 50 7101.13 13658.9 50 
7050 14550 50 7169.98 14222.8 50 7750 14950 50 
9203.87 12248.7 50 9950 12850 50 8493.63 13812.5 50 
8550 14650 50 9021.69 6958.85 50 9750 6650 50 
8046.49 5782.49 50 8550 5250 50 8919.94 7946.1 50 
9650 8250 50 9306.16 12249.6 50 10050 11950 50 
9504.97 7308.32 50 10350 7250 50 8990.06 6277.55 50 
9650 5750 50 9748.55 12785.6 50 9950 13550 50 
8512.05 5379.77 50 9250 5150 50 7732.39 14857.3 50 
8350 15450 50 7115.59 14507.3 50 7150 15250 50 
9889.56 12830.7 50 10650 12750 50 7210.71 15105.5 50 
7650 15650 50 9550.88 8139.95 50 10350 8050 50 
9715.21 6640.12 50 10250 6350 50 8643.96 14522 50 
8950 15150 50 10234.3 7966.78 50 10850 7650 50 
10191.8 7195.75 50 10850 6750 50 9209.86 5223.53 50 
9950 5150 50 9889.56 13320.7 50 10650 13550 50 
9237.96 5172.06 50 8950 4550 50 10008 12045.9 50 
10750 11950 50 10635.5 12769.4 50 11250 12750 50 
9246.39 5156.62 50 9650 4450 50 10793 7639.37 50 
11350 7250 50 10918.2 12760.5 50 11250 13350 50 
9792.16 5099.85 50 10250 4650 50 9939.5 5152.42 50 
10450 5350 50 10832 6772.98 50 11350 6450 50 
11150.5 12753.1 50 11450 12150 50 9092.78 4697.72 50 
9250 4050 50 11220.1 12750.9 50 11850 12750 50 
9637.13 4479.59 50 9950 3950 50 10832.9 7646.81 50 
11350 8050 50 11283.6 7369.13 50 11950 7350 50 
11217.9 13157.7 50 11850 13450 50 11252.7 6591.04 50 
11950 6650 50 10215.5 4681.95 50 10650 4250 50 
11415.2 12361.1 50 11950 12150 50 10296.9 5290.73 50 
10850 4950 50 9960.24 3977.95 50 10250 3550 50 
11763.9 12792.3 50 12450 13050 50 11590.1 7360.33 50 
11950 7950 50 
LINES 159 477
2 4 1 
2 0 2 
2 8 3 
2 2 4 
2 4 5 
2 2 6 
2 6 7 
2 6 8 
2 12 9 
2 8 10 
2 14 11 
2 10 12 
2 18 13 
2 10 14 
2 20 15 
2 14 16 
2 22 17 
2 12 18 
2 18 19 
2 16 20 
2 28 21 
2 16 22 
2 30 23 
2 22 24 
2 34 25 
2 20 26 
2 26 27 
2 26 28 
2 38 29 
2 24 30 
2 36 31 
2 28 32 
2 52 33 
2 24 34 
2 44 35 
2 30 36 
2 50 37 
2 32 38 
2 48 39 
2 32 40 
2 40 41 
2 36 42 
2 54 43 
2 34 44 
2 60 45 
2 38 46 
2 68 47 
2 46 48 
2 56 49 
2 42 50 
2 80 51 
2 40 52 
2 58 53 
2 42 54 
2 76 55 
2 48 56 
2 74 57 
2 52 58 
2 82 59 
2 44 60 
2 78 61 
2 56 62 
2 62 63 
2 54 64 
2 86 65 
2 64 66 
2 84 67 
2 46 68 
2 94 69 
2 68 70 
2 92 71 
2 58 72 
2 96 73 
2 62 74 
2 104 75 
2 66 76 
2 102 77 
2 60 78 
2 90 79 
2 50 80 
2 100 81 
2 72 82 
2 116 83 
2 66 84 
2 108 85 
2 64 86 
2 86 87 
2 72 88 
2 112 89 
2 78 90 
2 120 91 
2 70 92 
2 92 93 
2 70 94 
2 98 95 
2 88 96 
2 118 97 
2 94 98 
2 98 99 
2 80 100 
2 106 101 
2 76 102 
2 102 103 
2 74 104 
2 104 105 
2 100 106 
2 140 107 
2 84 108 
2 130 109 
2 90 110 
2 128 111 
2 88 112 
2 112 113 
2 110 114 
2 134 115 
2 82 116 
2 116 117 
2 96 118 
2 136 119 
2 114 120 
2 138 121 
2 106 122 
2 142 123 
2 118 124 
2 144 125 
2 110 126 
2 148 127 
2 126 128 
2 152 129 
2 108 130 
2 146 131 
2 124 132 
2 150 133 
2 114 134 
2 134 135 
2 132 136 
2 156 137 
2 120 138 
2 154 139 
2 122 140 
2 140 141 
2 122 142 
2 158 143 
2 124 144 
2 144 145 
2 130 146 
2 146 147 
2 126 148 
2 148 149 
2 132 150 
2 150 151 
2 128 152 
2 152 153 
2 138 154 
2 154 155 
2 136 156 
2 156 157 
2 142 158 
2 158 159 

CELL_DATA 159
SCALARS radius float
LOOKUP_TABLE default
92.9635 100 89.6332 96.4176 92.9635 96.4176 92.9635 92.9635 83.3262 
89.6332 83.3262 86.4222 80.3411 86.4222 77.463 83.3262 77.463 83.3262 
80.3411 80.3411 72.0123 80.3411 72.0123 77.463 72.0123 77.463 74.6879 
74.6879 66.9452 74.6879 69.4326 72.0123 64.547 74.6879 69.4326 72.0123 
64.547 69.4326 62.2346 69.4326 66.9452 69.4326 64.547 72.0123 66.9452 
66.9452 62.2346 64.547 60.0051 66.9452 62.2346 66.9452 62.2346 66.9452 
57.8555 62.2346 55.7829 64.547 57.8555 69.4326 64.547 60.0051 57.8555 
64.547 60.0051 62.2346 57.8555 64.547 57.8555 62.2346 57.8555 62.2346 
55.7829 57.8555 53.7845 60.0051 55.7829 66.9452 62.2346 64.547 60.0051 
60.0051 55.7829 60.0051 55.7829 62.2346 60.0051 60.0051 55.7829 64.547 
55.7829 60.0051 57.8555 60.0051 55.7829 57.8555 53.7845 57.8555 55.7829 
62.2346 57.8555 57.8555 55.7829 55.7829 53.7845 60.0051 53.7845 57.8555 
53.7845 62.2346 55.7829 57.8555 55.7829 60.0051 55.7829 57.8555 55.7829 
55.7829 48.2088 57.8555 53.7845 57.8555 53.7845 53.7845 50 60.0051 
55.7829 57.8555 53.7845 55.7829 51.8578 51.8578 48.2088 57.8555 55.7829 
50 46.4818 55.7829 51.8578 55.7829 53.7845 55.7829 51.8578 51.8578 
50 53.7845 51.8578 57.8555 55.7829 50 48.2088 55.7829 53.7845 
53.7845 51.8578 48.2088 46.4818 53.7845 51.8578 
