# vtk DataFile Version 4.1
vtk output
ASCII
DATASET POLYDATA
POINTS 160 float
100 9850 50 50 9250 50 100 9850 50 
2050 10250 50 65 9780 50 50 9750 50 
843.5 9860 50 1650 9150 50 1892.25 10088.7 50 
3250 9850 50 2842.67 9921.61 50 3750 10950 50 
3600.44 10576.1 50 4950 10850 50 4739.62 10706 50 
6050 10350 50 5656.89 10456.8 50 6050 9050 50 
5088.18 10611.3 50 5950 11550 50 5691.45 11268.4 50 
6850 11150 50 6156.55 9192.52 50 6650 8150 50 
5936.83 11526.9 50 6650 12250 50 6162.75 9587.07 50 
7450 8850 50 6663.19 11252 50 7750 11650 50 
6548.1 8203.61 50 6850 7150 50 6638.67 7887.52 50 
7850 7650 50 6644.73 12156.8 50 7650 12950 50 
6874.03 7352.13 50 7550 6750 50 7598.22 11718.6 50 
8450 12350 50 7053.31 12629.4 50 7050 13550 50 
7779.81 7779.88 50 8750 7750 50 7453.41 6960.75 50 
8550 6750 50 7449.42 12938.2 50 8050 13850 50 
8317.43 12344 50 8950 13050 50 7871.52 11956.3 50 
8650 11650 50 8572.05 7674.07 50 9350 7150 50 
7521.02 6813.22 50 7750 5850 50 7107.06 13507.4 50 
7250 14450 50 8557.81 12612.3 50 9550 12350 50 
7681.31 6138.97 50 8650 5850 50 7885.82 13782.2 50 
8150 14650 50 8438.26 6659.98 50 9250 6350 50 
8893.36 12875.8 50 9750 13150 50 8696.61 7727.22 50 
9350 8250 50 9153.98 8093.17 50 9950 7750 50 
9303.29 7135.78 50 9850 6650 50 9428.5 12489.9 50 
10250 12550 50 8536.02 5830.47 50 9350 5450 50 
7260.26 14372.4 50 7450 15250 50 9598.51 6873.46 50 
10350 7150 50 8142.85 5972.38 50 8250 5150 50 
8121.46 14596.3 50 8350 15450 50 8141.44 14633.9 50 
8850 14950 50 8910.45 5655.45 50 8950 4850 50 
9806.39 12517.6 50 10250 11850 50 10116.9 12540.3 50 
10550 13250 50 9805.08 7884.65 50 10450 8050 50 
9774.55 6717.04 50 9950 5950 50 10210.1 12547.1 50 
10950 12550 50 8938.13 5091.64 50 9650 4750 50 
9827.37 6670.11 50 10650 6450 50 10305.5 7145.51 50 
11050 7450 50 9949.86 5999.45 50 10150 5250 50 
10733 12619 50 11250 13050 50 10511.9 6551.43 50 
11250 6750 50 9208.64 4961.81 50 9250 4250 50 
9586.83 4751.19 50 10050 4350 50 10979.8 7324.56 50 
11650 7350 50 10884.9 12570.7 50 11250 11950 50 
10579.4 13162.9 50 11150 13750 50 11028.9 7412.37 50 
11250 8050 50 10198 5349.82 50 10550 4750 50 
11012.2 12851.7 50 11750 12550 50 11236.8 13022.6 50 
11750 13350 50 10649.6 6459.73 50 11150 6150 50 
11134.7 6668.39 50 11850 6550 50 9911.05 4470.36 50 
9750 3750 50 11539 7301.13 50 12150 7050 50 
10049.1 4355.38 50 10550 3950 50 11596 13251.8 50 
12250 12950 50 11616.7 7335.34 50 11850 7950 50 
11869 7165.52 50 12350 7550 50 11206.2 12167.2 50 
11850 11950 50 11746.2 12050.7 50 12350 12250 50 
11844.5 13137.1 50 12450 13550 50 12048.7 7038.92 50 
12450 6550 50 12167.2 7403.9 50 12750 7150 50 
12224.5 12972.5 50 12850 12750 50 12219.9 13393.1 50 
12150 13950 50 
LINES 159 477
2 4 1 
2 0 2 
2 8 3 
2 2 4 
2 4 5 
2 2 6 
2 6 7 
2 6 8 
2 10 9 
2 8 10 
2 12 11 
2 10 12 
2 14 13 
2 12 14 
2 16 15 
2 18 16 
2 22 17 
2 14 18 
2 24 19 
2 18 20 
2 28 21 
2 26 22 
2 30 23 
2 20 24 
2 34 25 
2 16 26 
2 26 27 
2 20 28 
2 38 29 
2 22 30 
2 36 31 
2 30 32 
2 42 33 
2 24 34 
2 46 35 
2 32 36 
2 54 37 
2 28 38 
2 48 39 
2 34 40 
2 56 41 
2 32 42 
2 68 43 
2 36 44 
2 64 45 
2 40 46 
2 62 47 
2 50 48 
2 66 49 
2 38 50 
2 50 51 
2 42 52 
2 72 53 
2 44 54 
2 60 55 
2 40 56 
2 78 57 
2 48 58 
2 74 59 
2 54 60 
2 76 61 
2 46 62 
2 86 63 
2 44 64 
2 64 65 
2 58 66 
2 66 67 
2 52 68 
2 70 69 
2 68 70 
2 94 71 
2 52 72 
2 102 73 
2 58 74 
2 98 75 
2 82 76 
2 88 77 
2 56 78 
2 78 79 
2 72 80 
2 104 81 
2 60 82 
2 82 83 
2 62 84 
2 84 85 
2 84 86 
2 86 87 
2 76 88 
2 100 89 
2 74 90 
2 90 91 
2 90 92 
2 120 93 
2 70 94 
2 94 95 
2 80 96 
2 106 97 
2 92 98 
2 118 99 
2 88 100 
2 114 101 
2 96 102 
2 130 103 
2 80 104 
2 122 105 
2 96 106 
2 124 107 
2 98 108 
2 128 109 
2 102 110 
2 132 111 
2 100 112 
2 112 113 
2 112 114 
2 138 115 
2 104 116 
2 142 117 
2 108 118 
2 146 119 
2 92 120 
2 120 121 
2 116 122 
2 122 123 
2 106 124 
2 124 125 
2 108 126 
2 126 127 
2 126 128 
2 140 129 
2 110 130 
2 130 131 
2 110 132 
2 132 133 
2 114 134 
2 134 135 
2 116 136 
2 152 137 
2 134 138 
2 138 139 
2 128 140 
2 156 141 
2 136 142 
2 142 143 
2 136 144 
2 154 145 
2 118 146 
2 148 147 
2 146 148 
2 148 149 
2 140 150 
2 158 151 
2 144 152 
2 152 153 
2 144 154 
2 154 155 
2 150 156 
2 156 157 
2 150 158 
2 158 159 

CELL_DATA 159
SCALARS radius float
LOOKUP_TABLE default
92.9635 100 89.6332 96.4176 92.9635 96.4176 92.9635 92.9635 86.4222 
89.6332 83.3262 86.4222 80.3411 83.3262 74.6879 77.463 69.4326 80.3411 
72.0123 77.463 72.0123 72.0123 66.9452 74.6879 69.4326 74.6879 72.0123 
74.6879 69.4326 69.4326 62.2346 66.9452 62.2346 72.0123 64.547 64.547 
57.8555 72.0123 64.547 69.4326 64.547 64.547 57.8555 62.2346 57.8555 
66.9452 62.2346 66.9452 60.0051 69.4326 66.9452 62.2346 57.8555 60.0051 
55.7829 66.9452 62.2346 64.547 60.0051 57.8555 51.8578 64.547 57.8555 
60.0051 57.8555 62.2346 60.0051 60.0051 55.7829 57.8555 53.7845 60.0051 
51.8578 62.2346 53.7845 53.7845 50 64.547 62.2346 57.8555 53.7845 
55.7829 53.7845 62.2346 60.0051 60.0051 57.8555 51.8578 48.2088 60.0051 
57.8555 57.8555 53.7845 55.7829 53.7845 55.7829 51.8578 55.7829 50 
50 44.8166 53.7845 48.2088 55.7829 50 53.7845 50 53.7845 
48.2088 51.8578 48.2088 48.2088 46.4818 46.4818 41.6631 53.7845 48.2088 
51.8578 48.2088 55.7829 53.7845 51.8578 50 51.8578 50 51.8578 
50 50 46.4818 50 48.2088 50 48.2088 44.8166 43.2111 
51.8578 46.4818 43.2111 41.6631 48.2088 43.2111 50 48.2088 50 
46.4818 50 46.4818 48.2088 46.4818 46.4818 43.2111 48.2088 46.4818 
48.2088 46.4818 44.8166 43.2111 44.8166 43.2111 
