# vtk DataFile Version 4.1
vtk output
ASCII
DATASET POLYDATA
POINTS 166 float
100 9850 50 150 10650 50 100 9850 50 
2050 10150 50 65 9920 50 50 9950 50 
685 9940 50 1450 9050 50 1840 9954 50 
3250 9750 50 2868.5 9961.4 50 4050 10750 50 
3223.44 9759.81 50 4450 9050 50 4007.92 10553.6 50 
5250 10950 50 4855.91 10667.6 50 6250 10150 50 
4365.5 9137.14 50 5550 8550 50 5217.01 10862 50 
6450 11350 50 5412.2 8840.86 50 6750 8750 50 
5240.1 10923.6 50 5550 11950 50 5886.17 11395.7 50 
6550 12350 50 5566.7 8581.61 50 6250 7550 50 
6316.44 11443.3 50 7550 11850 50 6164.84 7911.06 50 
7350 7550 50 6629.9 8667.07 50 7850 8350 50 
6561.57 12212.6 50 7350 12950 50 7195.56 12512.1 50 
8150 12650 50 6717.57 7608.14 50 7150 6650 50 
7529.96 8252.83 50 8450 7550 50 7104.06 7062 50 
8150 6650 50 7351.94 12908.7 50 7750 13750 50 
7435.26 11719.9 50 8550 11850 50 6553.47 12308.8 50 
6750 13550 50 8096.58 12661.9 50 9050 12850 50 
8425.19 7606.68 50 9150 7150 50 7476.89 6795.08 50 
7750 5950 50 7916.56 6614.38 50 8550 5950 50 
7704.84 13388.3 50 8650 13750 50 6814.83 13476.1 50 
7150 14350 50 8056.1 8026.28 50 9050 8250 50 
7213.12 14014.5 50 7950 14650 50 8473.28 11892.4 50 
9550 12150 50 9017.18 12804.8 50 9750 12850 50 
8899.95 8094.41 50 9650 7950 50 8924.32 7183.84 50 
9350 6250 50 9128.85 7183.96 50 9950 7250 50 
8696.48 12944.9 50 9450 13550 50 8224.32 13772.4 50 
8750 14450 50 7808.76 6092.03 50 8350 5250 50 
8543.3 6022.6 50 9250 5450 50 7210.19 14290.9 50 
7350 15150 50 7396.25 14960 50 7950 15450 50 
9515.59 12116.2 50 10350 12250 50 7882.2 14614.7 50 
8550 15250 50 9358.55 13372.6 50 10250 13450 50 
9573.21 7118.32 50 10250 6550 50 10100 12301.2 50 
10650 12950 50 9601.98 7951.76 50 10550 7750 50 
10226.8 7662.71 50 10750 7150 50 8344.8 5379.45 50 
8950 4750 50 9163.32 5707.04 50 9950 5550 50 
10173.4 6759.86 50 10750 6650 50 8903.92 5001.78 50 
9650 4750 50 10346.5 12253.9 50 10950 12150 50 
10204.1 13459.4 50 10850 13550 50 10642 12770.4 50 
11250 13050 50 10509 7698.46 50 11250 7650 50 
9656.39 5457.38 50 10250 4950 50 10706.7 7274.43 50 
11450 7050 50 8968.5 4794.41 50 9250 4150 50 
10871.1 12220.1 50 11550 12450 50 10687.4 6637.95 50 
11350 6450 50 9463.57 4710.71 50 10050 4250 50 
11090.8 13078.1 50 11550 13550 50 11202.2 13058.4 50 
11950 13050 50 10172 4972.36 50 10650 4450 50 
11180.9 7693.51 50 11850 7750 50 11352.2 7009.82 50 
11950 6650 50 11627.2 6844.3 50 12150 7150 50 
11500.7 12376.4 50 12150 12450 50 9271.92 4216.21 50 
9650 3650 50 9974.34 4257.43 50 10450 3750 50 
11943.1 13052.4 50 12450 13050 50 11534.3 13389.3 50 
12150 13650 50 11778.4 7671.4 50 12550 7550 50 
11921 6718.01 50 12550 6650 50 12082.2 12398.5 50 
12650 12350 50 7929.66 14639.4 50 7950 14950 50 
9880.69 4460.22 50 9950 4450 50 12220.1 6766.64 50 
12450 6950 50 
LINES 165 495
2 4 1 
2 0 2 
2 8 3 
2 2 4 
2 4 5 
2 2 6 
2 6 7 
2 6 8 
2 12 9 
2 8 10 
2 14 11 
2 10 12 
2 18 13 
2 10 14 
2 24 15 
2 14 16 
2 16 17 
2 12 18 
2 28 19 
2 16 20 
2 30 21 
2 18 22 
2 34 23 
2 20 24 
2 24 25 
2 20 26 
2 50 27 
2 22 28 
2 32 29 
2 26 30 
2 48 31 
2 28 32 
2 40 33 
2 22 34 
2 42 35 
2 26 36 
2 46 37 
2 36 38 
2 52 39 
2 32 40 
2 44 41 
2 34 42 
2 54 43 
2 40 44 
2 58 45 
2 38 46 
2 60 47 
2 30 48 
2 68 49 
2 36 50 
2 62 51 
2 38 52 
2 70 53 
2 64 54 
2 76 55 
2 44 56 
2 82 57 
2 56 58 
2 84 59 
2 46 60 
2 80 61 
2 50 62 
2 86 63 
2 42 64 
2 72 65 
2 62 66 
2 160 67 
2 48 68 
2 90 69 
2 78 70 
2 70 71 
2 64 72 
2 100 73 
2 54 74 
2 74 75 
2 74 76 
2 96 77 
2 52 78 
2 94 79 
2 60 80 
2 80 81 
2 56 82 
2 104 83 
2 58 84 
2 106 85 
2 66 86 
2 88 87 
2 86 88 
2 88 89 
2 68 90 
2 112 91 
2 66 92 
2 92 93 
2 78 94 
2 114 95 
2 76 96 
2 108 97 
2 90 98 
2 116 99 
2 72 100 
2 118 101 
2 100 102 
2 122 103 
2 82 104 
2 124 105 
2 84 106 
2 120 107 
2 96 108 
2 128 109 
2 104 110 
2 130 111 
2 98 112 
2 126 113 
2 94 114 
2 114 115 
2 98 116 
2 134 117 
2 102 118 
2 138 119 
2 106 120 
2 136 121 
2 102 122 
2 140 123 
2 110 124 
2 146 125 
2 112 126 
2 144 127 
2 108 128 
2 128 129 
2 110 130 
2 148 131 
2 116 132 
2 152 133 
2 132 134 
2 150 135 
2 120 136 
2 136 137 
2 118 138 
2 154 139 
2 122 140 
2 156 141 
2 140 142 
2 142 143 
2 126 144 
2 158 145 
2 124 146 
2 146 147 
2 162 148 
2 148 149 
2 134 150 
2 150 151 
2 132 152 
2 152 153 
2 138 154 
2 154 155 
2 142 156 
2 164 157 
2 144 158 
2 158 159 
2 92 160 
2 160 161 
2 130 162 
2 162 163 
2 156 164 
2 164 165 

CELL_DATA 165
SCALARS radius float
LOOKUP_TABLE default
92.9635 100 89.6332 96.4176 92.9635 96.4176 92.9635 92.9635 83.3262 
89.6332 83.3262 86.4222 80.3411 86.4222 74.6879 83.3262 80.3411 83.3262 
74.6879 80.3411 72.0123 80.3411 74.6879 77.463 74.6879 77.463 69.4326 
77.463 72.0123 74.6879 69.4326 74.6879 69.4326 77.463 72.0123 74.6879 
66.9452 72.0123 66.9452 72.0123 66.9452 74.6879 66.9452 69.4326 62.2346 
69.4326 64.547 72.0123 66.9452 72.0123 66.9452 69.4326 62.2346 69.4326 
62.2346 66.9452 62.2346 64.547 60.0051 66.9452 62.2346 69.4326 62.2346 
72.0123 66.9452 66.9452 60.0051 69.4326 64.547 64.547 62.2346 69.4326 
64.547 66.9452 64.547 64.547 60.0051 66.9452 62.2346 64.547 62.2346 
64.547 60.0051 62.2346 57.8555 64.547 60.0051 62.2346 60.0051 66.9452 
60.0051 64.547 62.2346 64.547 60.0051 62.2346 57.8555 64.547 60.0051 
66.9452 60.0051 64.547 60.0051 62.2346 55.7829 60.0051 55.7829 60.0051 
55.7829 60.0051 55.7829 62.2346 57.8555 62.2346 60.0051 62.2346 55.7829 
62.2346 57.8555 57.8555 53.7845 62.2346 57.8555 57.8555 53.7845 60.0051 
55.7829 57.8555 55.7829 57.8555 51.8578 60.0051 55.7829 57.8555 53.7845 
55.7829 53.7845 60.0051 55.7829 60.0051 53.7845 57.8555 55.7829 57.8555 
53.7845 55.7829 53.7845 53.7845 51.8578 55.7829 53.7845 57.8555 55.7829 
57.8555 55.7829 55.7829 51.8578 55.7829 53.7845 62.2346 60.0051 55.7829 
53.7845 53.7845 51.8578 
