<VTKFile type="UnstructuredGrid" version="1.0" byte_order="LittleEndian" header_type="UInt64">
  <UnstructuredGrid>
    <Piece NumberOfPoints="726" NumberOfCells="500">
      <CellData Scalars="Scalars_">
        <DataArray type="Float32" Name="Scalars_" format="ascii">
     0.000000      0.000000      0.000000      0.000000      0.000000      0.000000      0.000000      0.000000      0.000000      0.000000      0.000000      0.000000      0.000000      0.000000      0.000000      0.000000      0.000000      0.000000      0.000000      0.000000      0.000000      0.000000      0.000000      0.000000      0.000000      0.000000      0.000000      0.000000      0.000000      0.000000      0.000000      0.000000      0.000000      0.000000      0.000000      0.000000      0.000000      0.000000      0.000000      0.000000      0.000000      0.000000      0.000000      0.000000      0.000000      0.000000      0.000000      0.000000      0.000000      0.000000      0.000000      0.000000      0.000000      0.000000      0.000000      0.000000      0.000000      0.000000      0.000000      0.000000      0.000000      0.000000      0.000000      0.000000      0.000000      0.000000      0.000000      0.000000      0.000000      0.000000      0.000000      0.000000      0.000000      0.000000      0.000000      0.000000      0.000000      0.000000      0.000000      0.000000      0.000000      0.000000      0.000000      0.000000      0.000000      0.000000      0.000000      0.000000      0.000000      0.000000      0.000000      0.000000      0.000000      0.000000      0.000000      0.000000      0.000000      0.000000      0.000000      0.000000      0.000000      0.000000      0.000000      0.000000      0.000000      0.000000      0.000000      0.000000      0.000000      0.000000      0.000000      0.000000      0.000000      0.000000      0.000000      0.000000      0.000000      0.000000      0.000000      0.000000      0.000000      0.000000      0.000000      0.000000      0.000000      0.000000      0.000000      0.000000      0.000000      0.000000      0.000000      0.000000      0.000000      0.000000      0.000000      0.000000      0.000000      0.000000      0.000000      0.000000      0.000000      0.000000      0.000000      0.000000      0.000000      0.000000      0.000000      0.000000      0.000000      0.000000      0.000000      0.000000      0.000000      0.000000      0.000000      0.000000      0.000000      0.000000      0.000000      0.000000      0.000000      0.000000      0.000000      0.000000      0.000000      0.000000      0.000000      0.000000      0.000000      0.000000      0.000000      0.000000      0.000000      0.000000      0.000000      0.000000      0.000000      0.000000      0.000000      0.000000      0.000000      0.000000      0.000000      0.000000      0.000000      0.000000      0.000000      0.000000      0.000000      0.000000      0.000000      0.000000      0.000000      0.000000      0.000000      0.000000      0.000000      0.000000      0.000000      0.000000      0.000000      0.000000      0.000000      0.000000      0.000000      0.000000      0.000000      0.000000      0.000000      0.000000      0.000000      0.000000      0.000000      0.000000      0.000000      0.000000      0.000000      0.000000      0.000000      0.000000      0.000000      0.000000      0.000000      0.000000      0.000000      0.000000      0.000000      0.000000      0.000000      0.000000      0.000000      0.000000      0.000000      0.000000      0.000000      0.000000      0.000000      0.000000      0.000000      0.000000      0.000000      0.000000      0.000000      0.000000      0.000000      0.000000      0.000000      0.000000      0.000000      0.000000      0.000000      0.000000      0.000000      0.000000      0.000000      0.000000      0.000000      0.000000      0.000000      0.000000      0.000000      0.000000      0.000000      0.000000      0.000000      0.000000      0.000000      0.000000      0.000000      0.000000      0.000000      0.000000      0.000000      0.000000      0.000000      0.000000      0.000000      0.000000      0.000000      0.000000      0.000000      0.000000      0.000000      0.000000      0.000000      0.000000      0.000000      0.000000      0.000000      0.000000      0.000000      0.000000      0.000000      0.000000      0.000000      0.000000      0.000000      0.000000      0.000000      0.000000      0.000000      0.000000      0.000000      0.000000      0.000000      0.000000      0.000000      0.000000      0.000000      0.000000      0.000000      0.000000      0.000000      0.000000      0.000000      0.000000      0.000000      0.000000      0.000000      0.000000      0.000000      0.000000      0.000000      0.000000      0.000000      0.000000      0.000000      0.000000      0.000000      0.000000      0.000000      0.000000      0.000000      0.000000      0.000000      0.000000      0.000000      0.000000      0.000000      0.000000      0.000000      0.000000      0.000000      0.000000      0.000000      0.000000      0.000000      0.000000      0.000000      0.000000      0.000000      0.000000      0.000000      0.000000      0.000000      0.000000      0.000000      0.000000      0.000000      0.000000      0.000000      0.000000      0.000000      0.000000      0.000000      0.000000      0.000000      0.000000      0.000000      0.000000      0.000000      0.000000      0.000000      0.000000      0.000000      0.000000      0.000000      0.000000      0.000000      0.000000      0.000000      0.000000      0.000000      0.000000      0.000000      0.000000      0.000000      0.000000      0.000000      0.000000      0.000000      0.000000      0.000000      0.000000      0.000000      0.000000      0.000000      0.000000      0.000000      0.000000      0.000000      0.000000      0.000000      0.000000      0.000000      0.000000      0.000000      0.000000      0.000000      0.000000      0.000000      0.000000      0.000000      0.000000      0.000000      0.000000      0.000000      0.000000      0.000000      0.000000      0.000000      0.000000      0.000000      0.000000      0.000000      0.000000      0.000000      0.000000      0.000000      0.000000      0.000000      0.000000      0.000000      0.000000      0.000000      0.000000      0.000000      0.000000      0.000000      0.000000      0.000000      0.000000      0.000000      0.000000      0.000000      0.000000      0.000000      0.000000      0.000000      0.000000      0.000000      0.000000      0.000000      0.000000      0.000000      0.000000      0.000000      0.000000      0.000000      0.000000      0.000000      0.000000      0.000000      0.000000      0.000000      0.000000      0.000000      0.000000      0.000000      0.000000      0.000000      0.000000      0.000000      0.000000      0.000000      0.000000      0.000000      0.000000      0.000000      0.000000      0.000000      0.000000      0.000000      0.000000      0.000000      0.000000      0.000000      0.000000      0.000000      0.000000      0.000000      0.000000      0.000000      0.000000      0.000000      0.000000      0.000000      0.000000      0.000000      0.000000         </DataArray>
      </CellData>
      <Points>
        <DataArray type="Float64" Name="Points" NumberOfComponents="3" format="ascii">
800.000000 300.000000 800.000000
900.000000 300.000000 800.000000
900.000000 400.000000 800.000000
800.000000 400.000000 800.000000
800.000000 300.000000 1000.000000
900.000000 300.000000 1000.000000
900.000000 400.000000 1000.000000
800.000000 400.000000 1000.000000
1000.000000 300.000000 800.000000
1000.000000 400.000000 800.000000
1000.000000 300.000000 1000.000000
1000.000000 400.000000 1000.000000
900.000000 200.000000 800.000000
1000.000000 200.000000 800.000000
900.000000 200.000000 1000.000000
1000.000000 200.000000 1000.000000
800.000000 200.000000 800.000000
800.000000 200.000000 1000.000000
800.000000 100.000000 800.000000
900.000000 100.000000 800.000000
800.000000 100.000000 1000.000000
900.000000 100.000000 1000.000000
800.000000 0.000000 800.000000
900.000000 0.000000 800.000000
800.000000 0.000000 1000.000000
900.000000 0.000000 1000.000000
1000.000000 0.000000 800.000000
1000.000000 100.000000 800.000000
1000.000000 0.000000 1000.000000
1000.000000 100.000000 1000.000000
1000.000000 500.000000 800.000000
900.000000 500.000000 800.000000
1000.000000 500.000000 1000.000000
900.000000 500.000000 1000.000000
800.000000 500.000000 800.000000
800.000000 500.000000 1000.000000
900.000000 600.000000 800.000000
800.000000 600.000000 800.000000
900.000000 600.000000 1000.000000
800.000000 600.000000 1000.000000
1000.000000 600.000000 800.000000
1000.000000 600.000000 1000.000000
1000.000000 700.000000 800.000000
900.000000 700.000000 800.000000
1000.000000 700.000000 1000.000000
900.000000 700.000000 1000.000000
800.000000 700.000000 800.000000
800.000000 700.000000 1000.000000
900.000000 800.000000 800.000000
800.000000 800.000000 800.000000
900.000000 800.000000 1000.000000
800.000000 800.000000 1000.000000
1000.000000 800.000000 800.000000
1000.000000 800.000000 1000.000000
900.000000 700.000000 600.000000
1000.000000 700.000000 600.000000
1000.000000 800.000000 600.000000
900.000000 800.000000 600.000000
800.000000 700.000000 600.000000
800.000000 800.000000 600.000000
800.000000 700.000000 400.000000
900.000000 700.000000 400.000000
900.000000 800.000000 400.000000
800.000000 800.000000 400.000000
1000.000000 700.000000 400.000000
1000.000000 800.000000 400.000000
900.000000 600.000000 400.000000
1000.000000 600.000000 400.000000
900.000000 600.000000 600.000000
1000.000000 600.000000 600.000000
800.000000 600.000000 400.000000
800.000000 600.000000 600.000000
900.000000 500.000000 600.000000
1000.000000 500.000000 600.000000
800.000000 500.000000 600.000000
800.000000 500.000000 400.000000
900.000000 500.000000 400.000000
1000.000000 500.000000 400.000000
900.000000 400.000000 400.000000
1000.000000 400.000000 400.000000
900.000000 400.000000 600.000000
1000.000000 400.000000 600.000000
800.000000 400.000000 400.000000
800.000000 400.000000 600.000000
900.000000 400.000000 0.000000
1000.000000 400.000000 0.000000
1000.000000 500.000000 0.000000
900.000000 500.000000 0.000000
900.000000 400.000000 200.000000
1000.000000 400.000000 200.000000
1000.000000 500.000000 200.000000
900.000000 500.000000 200.000000
800.000000 400.000000 0.000000
800.000000 500.000000 0.000000
800.000000 400.000000 200.000000
800.000000 500.000000 200.000000
1000.000000 600.000000 200.000000
900.000000 600.000000 200.000000
800.000000 600.000000 200.000000
900.000000 600.000000 0.000000
800.000000 600.000000 0.000000
1000.000000 600.000000 0.000000
1000.000000 700.000000 0.000000
900.000000 700.000000 0.000000
1000.000000 700.000000 200.000000
900.000000 700.000000 200.000000
800.000000 700.000000 0.000000
800.000000 700.000000 200.000000
1000.000000 800.000000 200.000000
900.000000 800.000000 200.000000
800.000000 800.000000 200.000000
900.000000 800.000000 0.000000
800.000000 800.000000 0.000000
1000.000000 800.000000 0.000000
900.000000 300.000000 200.000000
1000.000000 300.000000 200.000000
900.000000 300.000000 400.000000
1000.000000 300.000000 400.000000
900.000000 300.000000 0.000000
1000.000000 300.000000 0.000000
900.000000 200.000000 0.000000
1000.000000 200.000000 0.000000
900.000000 200.000000 200.000000
1000.000000 200.000000 200.000000
900.000000 200.000000 400.000000
1000.000000 200.000000 400.000000
800.000000 200.000000 200.000000
800.000000 300.000000 200.000000
800.000000 200.000000 400.000000
800.000000 300.000000 400.000000
800.000000 200.000000 0.000000
800.000000 300.000000 0.000000
800.000000 300.000000 600.000000
900.000000 300.000000 600.000000
1000.000000 300.000000 600.000000
800.000000 200.000000 600.000000
900.000000 200.000000 600.000000
1000.000000 200.000000 600.000000
800.000000 100.000000 400.000000
900.000000 100.000000 400.000000
800.000000 100.000000 600.000000
900.000000 100.000000 600.000000
1000.000000 100.000000 400.000000
1000.000000 100.000000 600.000000
800.000000 0.000000 600.000000
900.000000 0.000000 600.000000
1000.000000 0.000000 600.000000
900.000000 0.000000 400.000000
1000.000000 0.000000 400.000000
800.000000 0.000000 400.000000
800.000000 0.000000 200.000000
900.000000 0.000000 200.000000
900.000000 100.000000 200.000000
800.000000 100.000000 200.000000
1000.000000 0.000000 200.000000
1000.000000 100.000000 200.000000
800.000000 100.000000 0.000000
900.000000 100.000000 0.000000
1000.000000 100.000000 0.000000
900.000000 0.000000 0.000000
1000.000000 0.000000 0.000000
800.000000 0.000000 0.000000
700.000000 0.000000 0.000000
700.000000 100.000000 0.000000
700.000000 0.000000 200.000000
700.000000 100.000000 200.000000
600.000000 0.000000 0.000000
600.000000 100.000000 0.000000
600.000000 0.000000 200.000000
600.000000 100.000000 200.000000
700.000000 200.000000 0.000000
600.000000 200.000000 0.000000
700.000000 200.000000 200.000000
600.000000 200.000000 200.000000
700.000000 100.000000 400.000000
700.000000 200.000000 400.000000
600.000000 100.000000 400.000000
600.000000 200.000000 400.000000
600.000000 0.000000 400.000000
700.000000 0.000000 400.000000
700.000000 0.000000 600.000000
700.000000 100.000000 600.000000
600.000000 0.000000 600.000000
600.000000 100.000000 600.000000
600.000000 0.000000 800.000000
700.000000 0.000000 800.000000
700.000000 100.000000 800.000000
600.000000 100.000000 800.000000
700.000000 200.000000 600.000000
700.000000 200.000000 800.000000
600.000000 200.000000 600.000000
600.000000 200.000000 800.000000
700.000000 300.000000 400.000000
700.000000 300.000000 600.000000
600.000000 300.000000 400.000000
600.000000 300.000000 600.000000
700.000000 300.000000 800.000000
600.000000 300.000000 800.000000
700.000000 400.000000 600.000000
700.000000 400.000000 800.000000
600.000000 400.000000 600.000000
600.000000 400.000000 800.000000
700.000000 400.000000 400.000000
600.000000 400.000000 400.000000
700.000000 300.000000 200.000000
700.000000 400.000000 200.000000
700.000000 300.000000 0.000000
700.000000 400.000000 0.000000
600.000000 300.000000 200.000000
600.000000 300.000000 0.000000
600.000000 400.000000 0.000000
600.000000 400.000000 200.000000
500.000000 300.000000 200.000000
500.000000 400.000000 200.000000
500.000000 300.000000 400.000000
500.000000 400.000000 400.000000
500.000000 300.000000 0.000000
500.000000 400.000000 0.000000
500.000000 200.000000 0.000000
500.000000 200.000000 200.000000
500.000000 200.000000 400.000000
400.000000 200.000000 200.000000
400.000000 300.000000 200.000000
400.000000 200.000000 400.000000
400.000000 300.000000 400.000000
400.000000 200.000000 0.000000
400.000000 300.000000 0.000000
400.000000 400.000000 0.000000
400.000000 400.000000 200.000000
400.000000 400.000000 400.000000
400.000000 300.000000 600.000000
500.000000 300.000000 600.000000
500.000000 400.000000 600.000000
400.000000 400.000000 600.000000
500.000000 300.000000 800.000000
500.000000 400.000000 800.000000
400.000000 300.000000 800.000000
400.000000 400.000000 800.000000
400.000000 200.000000 600.000000
500.000000 200.000000 600.000000
400.000000 200.000000 800.000000
500.000000 200.000000 800.000000
400.000000 100.000000 400.000000
500.000000 100.000000 400.000000
400.000000 100.000000 600.000000
500.000000 100.000000 600.000000
500.000000 100.000000 800.000000
400.000000 100.000000 800.000000
400.000000 0.000000 600.000000
500.000000 0.000000 600.000000
400.000000 0.000000 800.000000
500.000000 0.000000 800.000000
500.000000 0.000000 400.000000
400.000000 0.000000 400.000000
400.000000 0.000000 200.000000
500.000000 0.000000 200.000000
500.000000 100.000000 200.000000
400.000000 100.000000 200.000000
400.000000 100.000000 0.000000
500.000000 100.000000 0.000000
500.000000 0.000000 0.000000
400.000000 0.000000 0.000000
300.000000 0.000000 0.000000
300.000000 100.000000 0.000000
300.000000 0.000000 200.000000
300.000000 100.000000 200.000000
300.000000 0.000000 400.000000
300.000000 100.000000 400.000000
300.000000 200.000000 200.000000
300.000000 200.000000 400.000000
300.000000 200.000000 0.000000
200.000000 100.000000 0.000000
200.000000 200.000000 0.000000
200.000000 100.000000 200.000000
200.000000 200.000000 200.000000
200.000000 100.000000 400.000000
200.000000 200.000000 400.000000
200.000000 0.000000 200.000000
200.000000 0.000000 400.000000
200.000000 0.000000 0.000000
100.000000 0.000000 0.000000
100.000000 100.000000 0.000000
100.000000 0.000000 200.000000
100.000000 100.000000 200.000000
0.000000 0.000000 0.000000
0.000000 100.000000 0.000000
0.000000 0.000000 200.000000
0.000000 100.000000 200.000000
0.000000 0.000000 400.000000
100.000000 0.000000 400.000000
100.000000 100.000000 400.000000
0.000000 100.000000 400.000000
100.000000 200.000000 200.000000
100.000000 200.000000 400.000000
0.000000 200.000000 200.000000
0.000000 200.000000 400.000000
100.000000 200.000000 0.000000
0.000000 200.000000 0.000000
200.000000 300.000000 0.000000
100.000000 300.000000 0.000000
200.000000 300.000000 200.000000
100.000000 300.000000 200.000000
0.000000 300.000000 0.000000
0.000000 300.000000 200.000000
100.000000 300.000000 400.000000
0.000000 300.000000 400.000000
200.000000 300.000000 400.000000
200.000000 400.000000 200.000000
100.000000 400.000000 200.000000
200.000000 400.000000 400.000000
100.000000 400.000000 400.000000
0.000000 400.000000 200.000000
0.000000 400.000000 400.000000
100.000000 400.000000 0.000000
0.000000 400.000000 0.000000
200.000000 400.000000 0.000000
300.000000 300.000000 0.000000
300.000000 400.000000 0.000000
300.000000 300.000000 200.000000
300.000000 400.000000 200.000000
300.000000 300.000000 400.000000
300.000000 400.000000 400.000000
200.000000 300.000000 600.000000
300.000000 300.000000 600.000000
300.000000 400.000000 600.000000
200.000000 400.000000 600.000000
300.000000 200.000000 600.000000
200.000000 200.000000 600.000000
200.000000 200.000000 800.000000
300.000000 200.000000 800.000000
300.000000 300.000000 800.000000
200.000000 300.000000 800.000000
300.000000 400.000000 800.000000
200.000000 400.000000 800.000000
100.000000 300.000000 600.000000
100.000000 400.000000 600.000000
100.000000 300.000000 800.000000
100.000000 400.000000 800.000000
0.000000 300.000000 600.000000
0.000000 400.000000 600.000000
0.000000 300.000000 800.000000
0.000000 400.000000 800.000000
100.000000 200.000000 600.000000
0.000000 200.000000 600.000000
0.000000 200.000000 800.000000
100.000000 200.000000 800.000000
100.000000 100.000000 600.000000
200.000000 100.000000 600.000000
100.000000 100.000000 800.000000
200.000000 100.000000 800.000000
0.000000 100.000000 600.000000
0.000000 100.000000 800.000000
100.000000 0.000000 600.000000
200.000000 0.000000 600.000000
0.000000 0.000000 600.000000
0.000000 0.000000 800.000000
100.000000 0.000000 800.000000
200.000000 0.000000 800.000000
300.000000 0.000000 600.000000
300.000000 100.000000 600.000000
300.000000 0.000000 800.000000
300.000000 100.000000 800.000000
300.000000 0.000000 1000.000000
400.000000 0.000000 1000.000000
400.000000 100.000000 1000.000000
300.000000 100.000000 1000.000000
400.000000 200.000000 1000.000000
300.000000 200.000000 1000.000000
200.000000 100.000000 1000.000000
200.000000 200.000000 1000.000000
200.000000 0.000000 1000.000000
100.000000 0.000000 1000.000000
100.000000 100.000000 1000.000000
0.000000 0.000000 1000.000000
0.000000 100.000000 1000.000000
100.000000 200.000000 1000.000000
0.000000 200.000000 1000.000000
200.000000 300.000000 1000.000000
100.000000 300.000000 1000.000000
0.000000 300.000000 1000.000000
100.000000 400.000000 1000.000000
0.000000 400.000000 1000.000000
200.000000 400.000000 1000.000000
300.000000 300.000000 1000.000000
300.000000 400.000000 1000.000000
400.000000 300.000000 1000.000000
400.000000 400.000000 1000.000000
500.000000 100.000000 1000.000000
500.000000 200.000000 1000.000000
500.000000 0.000000 1000.000000
600.000000 0.000000 1000.000000
600.000000 100.000000 1000.000000
600.000000 200.000000 1000.000000
700.000000 100.000000 1000.000000
700.000000 200.000000 1000.000000
700.000000 0.000000 1000.000000
700.000000 300.000000 1000.000000
700.000000 400.000000 1000.000000
600.000000 300.000000 1000.000000
600.000000 400.000000 1000.000000
500.000000 300.000000 1000.000000
500.000000 400.000000 1000.000000
400.000000 500.000000 800.000000
500.000000 500.000000 800.000000
500.000000 600.000000 800.000000
400.000000 600.000000 800.000000
400.000000 500.000000 1000.000000
500.000000 500.000000 1000.000000
500.000000 600.000000 1000.000000
400.000000 600.000000 1000.000000
600.000000 500.000000 800.000000
600.000000 500.000000 1000.000000
600.000000 600.000000 800.000000
600.000000 600.000000 1000.000000
700.000000 500.000000 800.000000
700.000000 600.000000 800.000000
700.000000 500.000000 1000.000000
700.000000 600.000000 1000.000000
700.000000 700.000000 800.000000
700.000000 800.000000 800.000000
700.000000 700.000000 1000.000000
700.000000 800.000000 1000.000000
600.000000 700.000000 800.000000
600.000000 700.000000 1000.000000
600.000000 800.000000 800.000000
600.000000 800.000000 1000.000000
500.000000 700.000000 800.000000
500.000000 800.000000 800.000000
500.000000 700.000000 1000.000000
500.000000 800.000000 1000.000000
400.000000 700.000000 800.000000
400.000000 700.000000 1000.000000
400.000000 800.000000 800.000000
400.000000 800.000000 1000.000000
200.000000 500.000000 800.000000
300.000000 500.000000 800.000000
300.000000 600.000000 800.000000
200.000000 600.000000 800.000000
200.000000 500.000000 1000.000000
300.000000 500.000000 1000.000000
300.000000 600.000000 1000.000000
200.000000 600.000000 1000.000000
100.000000 500.000000 800.000000
100.000000 500.000000 1000.000000
0.000000 500.000000 800.000000
0.000000 500.000000 1000.000000
100.000000 600.000000 800.000000
0.000000 600.000000 800.000000
100.000000 600.000000 1000.000000
0.000000 600.000000 1000.000000
200.000000 700.000000 800.000000
100.000000 700.000000 800.000000
200.000000 700.000000 1000.000000
100.000000 700.000000 1000.000000
0.000000 700.000000 800.000000
0.000000 700.000000 1000.000000
100.000000 800.000000 800.000000
0.000000 800.000000 800.000000
100.000000 800.000000 1000.000000
0.000000 800.000000 1000.000000
200.000000 800.000000 800.000000
200.000000 800.000000 1000.000000
300.000000 700.000000 800.000000
300.000000 800.000000 800.000000
300.000000 700.000000 1000.000000
300.000000 800.000000 1000.000000
300.000000 700.000000 600.000000
400.000000 700.000000 600.000000
400.000000 800.000000 600.000000
300.000000 800.000000 600.000000
300.000000 700.000000 400.000000
400.000000 700.000000 400.000000
400.000000 800.000000 400.000000
300.000000 800.000000 400.000000
300.000000 600.000000 400.000000
400.000000 600.000000 400.000000
300.000000 600.000000 600.000000
400.000000 600.000000 600.000000
200.000000 600.000000 600.000000
200.000000 700.000000 600.000000
200.000000 600.000000 400.000000
200.000000 700.000000 400.000000
200.000000 800.000000 400.000000
200.000000 800.000000 600.000000
100.000000 700.000000 600.000000
100.000000 800.000000 600.000000
0.000000 700.000000 600.000000
0.000000 800.000000 600.000000
0.000000 700.000000 400.000000
100.000000 700.000000 400.000000
100.000000 800.000000 400.000000
0.000000 800.000000 400.000000
100.000000 600.000000 400.000000
100.000000 600.000000 600.000000
0.000000 600.000000 400.000000
0.000000 600.000000 600.000000
100.000000 500.000000 600.000000
200.000000 500.000000 600.000000
0.000000 500.000000 600.000000
0.000000 500.000000 400.000000
100.000000 500.000000 400.000000
200.000000 500.000000 400.000000
300.000000 500.000000 600.000000
400.000000 500.000000 600.000000
300.000000 500.000000 400.000000
400.000000 500.000000 400.000000
300.000000 500.000000 200.000000
200.000000 500.000000 200.000000
400.000000 500.000000 200.000000
400.000000 600.000000 200.000000
300.000000 600.000000 200.000000
200.000000 600.000000 200.000000
200.000000 500.000000 0.000000
300.000000 500.000000 0.000000
300.000000 600.000000 0.000000
200.000000 600.000000 0.000000
400.000000 500.000000 0.000000
400.000000 600.000000 0.000000
100.000000 500.000000 0.000000
100.000000 500.000000 200.000000
0.000000 500.000000 0.000000
0.000000 500.000000 200.000000
100.000000 600.000000 200.000000
0.000000 600.000000 200.000000
100.000000 600.000000 0.000000
0.000000 600.000000 0.000000
200.000000 700.000000 0.000000
100.000000 700.000000 0.000000
200.000000 700.000000 200.000000
100.000000 700.000000 200.000000
0.000000 700.000000 0.000000
0.000000 700.000000 200.000000
200.000000 800.000000 200.000000
100.000000 800.000000 200.000000
0.000000 800.000000 200.000000
100.000000 800.000000 0.000000
0.000000 800.000000 0.000000
200.000000 800.000000 0.000000
300.000000 700.000000 0.000000
300.000000 800.000000 0.000000
300.000000 700.000000 200.000000
300.000000 800.000000 200.000000
400.000000 700.000000 0.000000
400.000000 700.000000 200.000000
400.000000 800.000000 200.000000
400.000000 800.000000 0.000000
500.000000 700.000000 0.000000
500.000000 800.000000 0.000000
500.000000 700.000000 200.000000
500.000000 800.000000 200.000000
600.000000 700.000000 0.000000
600.000000 800.000000 0.000000
600.000000 700.000000 200.000000
600.000000 800.000000 200.000000
500.000000 600.000000 0.000000
600.000000 600.000000 0.000000
500.000000 600.000000 200.000000
600.000000 600.000000 200.000000
500.000000 600.000000 400.000000
500.000000 700.000000 400.000000
600.000000 600.000000 400.000000
600.000000 700.000000 400.000000
600.000000 800.000000 400.000000
500.000000 800.000000 400.000000
500.000000 700.000000 600.000000
500.000000 800.000000 600.000000
600.000000 700.000000 600.000000
600.000000 800.000000 600.000000
500.000000 600.000000 600.000000
600.000000 600.000000 600.000000
500.000000 500.000000 400.000000
500.000000 500.000000 600.000000
600.000000 500.000000 400.000000
600.000000 500.000000 600.000000
500.000000 500.000000 200.000000
500.000000 500.000000 0.000000
600.000000 500.000000 0.000000
600.000000 500.000000 200.000000
700.000000 500.000000 200.000000
700.000000 500.000000 400.000000
700.000000 600.000000 200.000000
700.000000 600.000000 400.000000
700.000000 500.000000 0.000000
700.000000 600.000000 0.000000
700.000000 500.000000 600.000000
700.000000 600.000000 600.000000
700.000000 700.000000 400.000000
700.000000 700.000000 600.000000
700.000000 800.000000 600.000000
700.000000 800.000000 400.000000
700.000000 700.000000 200.000000
700.000000 800.000000 200.000000
700.000000 700.000000 0.000000
700.000000 800.000000 0.000000
800.000000 900.000000 0.000000
700.000000 900.000000 0.000000
800.000000 900.000000 200.000000
700.000000 900.000000 200.000000
600.000000 900.000000 0.000000
600.000000 900.000000 200.000000
700.000000 1000.000000 0.000000
600.000000 1000.000000 0.000000
700.000000 1000.000000 200.000000
600.000000 1000.000000 200.000000
800.000000 1000.000000 0.000000
800.000000 1000.000000 200.000000
700.000000 900.000000 400.000000
800.000000 900.000000 400.000000
800.000000 1000.000000 400.000000
700.000000 1000.000000 400.000000
600.000000 900.000000 400.000000
600.000000 1000.000000 400.000000
800.000000 900.000000 600.000000
700.000000 900.000000 600.000000
600.000000 900.000000 600.000000
700.000000 900.000000 800.000000
600.000000 900.000000 800.000000
800.000000 900.000000 800.000000
800.000000 1000.000000 600.000000
700.000000 1000.000000 600.000000
800.000000 1000.000000 800.000000
700.000000 1000.000000 800.000000
600.000000 1000.000000 600.000000
600.000000 1000.000000 800.000000
400.000000 900.000000 400.000000
500.000000 900.000000 400.000000
500.000000 1000.000000 400.000000
400.000000 1000.000000 400.000000
400.000000 900.000000 600.000000
500.000000 900.000000 600.000000
500.000000 1000.000000 600.000000
400.000000 1000.000000 600.000000
500.000000 900.000000 800.000000
500.000000 1000.000000 800.000000
400.000000 900.000000 800.000000
400.000000 1000.000000 800.000000
500.000000 900.000000 200.000000
400.000000 900.000000 200.000000
500.000000 1000.000000 200.000000
400.000000 1000.000000 200.000000
400.000000 900.000000 0.000000
500.000000 900.000000 0.000000
500.000000 1000.000000 0.000000
400.000000 1000.000000 0.000000
300.000000 900.000000 0.000000
300.000000 900.000000 200.000000
300.000000 900.000000 400.000000
300.000000 1000.000000 200.000000
300.000000 1000.000000 400.000000
300.000000 1000.000000 0.000000
200.000000 900.000000 0.000000
200.000000 1000.000000 0.000000
200.000000 900.000000 200.000000
200.000000 1000.000000 200.000000
200.000000 900.000000 400.000000
200.000000 1000.000000 400.000000
100.000000 900.000000 0.000000
100.000000 900.000000 200.000000
0.000000 900.000000 0.000000
0.000000 900.000000 200.000000
100.000000 900.000000 400.000000
0.000000 900.000000 400.000000
100.000000 1000.000000 200.000000
100.000000 1000.000000 400.000000
0.000000 1000.000000 200.000000
0.000000 1000.000000 400.000000
100.000000 1000.000000 0.000000
0.000000 1000.000000 0.000000
100.000000 900.000000 600.000000
200.000000 900.000000 600.000000
200.000000 1000.000000 600.000000
100.000000 1000.000000 600.000000
100.000000 900.000000 800.000000
200.000000 900.000000 800.000000
200.000000 1000.000000 800.000000
100.000000 1000.000000 800.000000
0.000000 900.000000 600.000000
0.000000 1000.000000 600.000000
0.000000 900.000000 800.000000
0.000000 1000.000000 800.000000
300.000000 900.000000 600.000000
300.000000 900.000000 800.000000
300.000000 1000.000000 600.000000
300.000000 1000.000000 800.000000
400.000000 900.000000 1000.000000
300.000000 900.000000 1000.000000
400.000000 1000.000000 1000.000000
300.000000 1000.000000 1000.000000
200.000000 900.000000 1000.000000
200.000000 1000.000000 1000.000000
100.000000 900.000000 1000.000000
0.000000 900.000000 1000.000000
100.000000 1000.000000 1000.000000