# vtk DataFile Version 4.1
vtk output
ASCII
DATASET POLYDATA
POINTS 168 float
100 9850 50 150 10650 50 100 9850 50 
2050 10050 50 65 9920 50 50 9950 50 
974 10206 50 1550 10950 50 1827.4 10188.6 50 
3150 10650 50 2841.09 10390.5 50 4250 9950 50 
3825.72 10357.4 50 5150 10650 50 4235.56 10013.2 50 
5450 9150 50 4928.29 10393 50 6250 10150 50 
5145.19 10596.4 50 6050 11350 50 5382.53 9133.17 50 
6250 8350 50 5839.58 10490.6 50 7050 10950 50 
6199.52 10156.5 50 7150 9150 50 6012.46 11360.8 50 
6950 12250 50 6168.41 8376.61 50 6950 7550 50 
6527.94 7996.37 50 7650 8250 50 6886.67 11027 50 
7850 11750 50 6920.99 12232.6 50 7650 12950 50 
6928.28 7650.23 50 7850 7150 50 7745.57 11776.5 50 
8450 12450 50 7453.18 8036.55 50 8550 7850 50 
6943.48 7580.07 50 7150 6450 50 7807.05 7254.07 50 
8750 6950 50 7256.33 12562.6 50 6950 13750 50 
7232.23 13186.4 50 7850 14050 50 7638.22 12884.4 50 
8550 13450 50 7302.87 6880.43 50 8050 6050 50 
8448.58 12346.5 50 9250 12850 50 8510.76 7810.77 50 
9350 7550 50 8358.53 6968.75 50 8850 6150 50 
8112.34 13402.5 50 8550 14250 50 7076.78 13664.7 50 
7150 14550 50 8237.68 12175.5 50 9250 11750 50 
7680.31 13997.7 50 7950 14850 50 8693.67 6916.06 50 
9550 6650 50 8989.39 12563.5 50 9850 12350 50 
9214.79 12833.7 50 9650 13450 50 8010.69 6053.3 50 
8550 5350 50 9045.13 7746.13 50 9750 8150 50 
9330.9 7592.34 50 10150 7250 50 9535.94 12525.8 50 
10250 12950 50 8849.41 6393.5 50 9550 5850 50 
7182.57 14462.7 50 7350 15250 50 8545.42 5491.06 50 
9150 5050 50 7975.18 14661.9 50 8650 15150 50 
7423.03 15047.1 50 7850 15650 50 9499.97 6707.14 50 
10350 6550 50 9796.08 12341.5 50 10250 11850 50 
9788.26 7508.59 50 10550 7850 50 9955.83 12663.7 50 
10750 12450 50 10121.4 7326.51 50 10850 7150 50 
9353.77 5871.4 50 9850 5150 50 9630.49 13311.6 50 
10350 13650 50 10373 12643 50 10950 13050 50 
10446.2 7684.75 50 11050 7650 50 10314 6587.71 50 
10950 6550 50 9048.17 5058.42 50 9650 4450 50 
9532.22 5834.63 50 10250 5650 50 10725.7 12786.4 50 
11450 12650 50 9842.9 5183.14 50 10250 4650 50 
10957 7603.38 50 11550 7250 50 10674 12447.5 50 
11150 11950 50 8778.02 5165.89 50 8950 4250 50 
10315.8 13569.7 50 11050 13750 50 10937.6 12978.7 50 
11550 13350 50 10886.5 6506.07 50 11450 6350 50 
11022.1 7636.01 50 11550 7950 50 9381.27 4525.37 50 
9550 3850 50 11386.2 12693.7 50 12050 12650 50 
10132.3 5597.08 50 10650 5250 50 10140.1 4695.95 50 
10250 3950 50 11067.4 12138.1 50 11750 12050 50 
11412.4 7415.68 50 12050 7550 50 11552.8 7305.75 50 
12150 6950 50 10217 4663.78 50 10850 4550 50 
11473 13173.5 50 12150 13250 50 10337.2 4308.05 50 
10750 3950 50 11736.6 13274.8 50 12050 13750 50 
11437.7 6371.94 50 12050 6250 50 11952.5 12723.5 50 
12650 12850 50 7957.3 14837.4 50 7950 14950 50 
9967.99 4821.96 50 9950 4450 50 12102.8 7053.17 50 
12450 6950 50 12307.9 12887.2 50 12450 13050 50 

LINES 167 501
2 4 1 
2 0 2 
2 8 3 
2 2 4 
2 4 5 
2 2 6 
2 6 7 
2 6 8 
2 10 9 
2 8 10 
2 14 11 
2 10 12 
2 18 13 
2 12 14 
2 20 15 
2 12 16 
2 24 17 
2 16 18 
2 26 19 
2 14 20 
2 28 21 
2 16 22 
2 32 23 
2 22 24 
2 24 25 
2 18 26 
2 34 27 
2 20 28 
2 42 29 
2 28 30 
2 40 31 
2 22 32 
2 38 33 
2 26 34 
2 50 35 
2 30 36 
2 44 37 
2 32 38 
2 54 39 
2 30 40 
2 56 41 
2 36 42 
2 52 43 
2 36 44 
2 68 45 
2 34 46 
2 62 47 
2 46 48 
2 66 49 
2 46 50 
2 60 51 
2 42 52 
2 74 53 
2 64 54 
2 72 55 
2 40 56 
2 78 57 
2 44 58 
2 82 59 
2 50 60 
2 60 61 
2 48 62 
2 84 63 
2 38 64 
2 64 65 
2 48 66 
2 160 67 
2 58 68 
2 92 69 
2 54 70 
2 94 71 
2 70 72 
2 104 73 
2 52 74 
2 86 75 
2 56 76 
2 76 77 
2 76 78 
2 100 79 
2 70 80 
2 98 81 
2 58 82 
2 114 83 
2 62 84 
2 90 85 
2 74 86 
2 112 87 
2 66 88 
2 88 89 
2 84 90 
2 90 91 
2 68 92 
2 110 93 
2 80 94 
2 94 95 
2 78 96 
2 108 97 
2 80 98 
2 122 99 
2 96 100 
2 100 101 
2 82 102 
2 118 103 
2 72 104 
2 126 105 
2 98 106 
2 128 107 
2 96 108 
2 132 109 
2 92 110 
2 130 111 
2 124 112 
2 134 113 
2 102 114 
2 138 115 
2 106 116 
2 136 117 
2 102 118 
2 148 119 
2 108 120 
2 146 121 
2 106 122 
2 142 123 
2 86 124 
2 124 125 
2 104 126 
2 126 127 
2 116 128 
2 150 129 
2 110 130 
2 156 131 
2 120 132 
2 132 133 
2 112 134 
2 134 135 
2 116 136 
2 158 137 
2 114 138 
2 138 139 
2 162 140 
2 152 141 
2 122 142 
2 142 143 
2 120 144 
2 144 145 
2 144 146 
2 164 147 
2 140 148 
2 148 149 
2 128 150 
2 154 151 
2 140 152 
2 152 153 
2 150 154 
2 154 155 
2 130 156 
2 156 157 
2 136 158 
2 166 159 
2 88 160 
2 160 161 
2 118 162 
2 162 163 
2 146 164 
2 164 165 
2 158 166 
2 166 167 

CELL_DATA 167
SCALARS radius float
LOOKUP_TABLE default
92.9635 100 89.6332 96.4176 92.9635 96.4176 92.9635 92.9635 86.4222 
89.6332 80.3411 86.4222 77.463 83.3262 77.463 83.3262 74.6879 80.3411 
74.6879 80.3411 74.6879 80.3411 74.6879 77.463 74.6879 77.463 72.0123 
77.463 66.9452 74.6879 69.4326 77.463 72.0123 74.6879 66.9452 72.0123 
66.9452 74.6879 66.9452 72.0123 66.9452 69.4326 64.547 69.4326 62.2346 
72.0123 64.547 69.4326 64.547 69.4326 64.547 66.9452 62.2346 69.4326 
62.2346 69.4326 62.2346 66.9452 62.2346 66.9452 64.547 66.9452 62.2346 
72.0123 69.4326 66.9452 60.0051 64.547 60.0051 66.9452 60.0051 64.547 
60.0051 64.547 60.0051 66.9452 64.547 64.547 57.8555 64.547 60.0051 
64.547 57.8555 64.547 60.0051 62.2346 55.7829 64.547 62.2346 62.2346 
60.0051 62.2346 57.8555 62.2346 60.0051 62.2346 57.8555 62.2346 55.7829 
60.0051 57.8555 62.2346 57.8555 62.2346 57.8555 60.0051 53.7845 60.0051 
53.7845 60.0051 55.7829 57.8555 53.7845 60.0051 55.7829 57.8555 53.7845 
60.0051 51.8578 57.8555 51.8578 57.8555 53.7845 60.0051 57.8555 60.0051 
57.8555 55.7829 51.8578 57.8555 53.7845 55.7829 53.7845 55.7829 53.7845 
55.7829 51.8578 57.8555 55.7829 55.7829 51.8578 55.7829 53.7845 55.7829 
53.7845 53.7845 50 53.7845 51.8578 53.7845 50 53.7845 51.8578 
51.8578 50 55.7829 53.7845 53.7845 50 62.2346 60.0051 57.8555 
55.7829 51.8578 50 51.8578 50 
