# vtk DataFile Version 4.1
vtk output
ASCII
DATASET POLYDATA
POINTS 168 float
100 9850 50 150 10650 50 100 9850 50 
2050 9950 50 65 9920 50 50 9950 50 
815.5 10031 50 1450 10950 50 1864.2 9814.4 50 
3150 9350 50 2853.97 9610.54 50 4250 10050 50 
3803.91 9615.06 50 5050 9250 50 4219.87 10037.8 50 
5150 11050 50 4755.22 10354.8 50 6250 10350 50 
5015.25 9338.82 50 6350 9150 50 5169.41 10946.3 50 
6050 11650 50 4541.24 9305.17 50 5350 8250 50 
5334.49 8588.07 50 6450 7950 50 5909.79 11375.7 50 
7250 11450 50 6202.88 9098.42 50 7350 8750 50 
6051.28 11614.2 50 6650 12550 50 6378.28 7935.14 50 
7150 7350 50 6774.7 11666.3 50 7850 12350 50 
7087.15 8665.37 50 8050 7950 50 6662.51 12371.7 50 
7550 13250 50 7121.31 7472.05 50 8150 6950 50 
7704.14 12391 50 8450 13050 50 6805.82 7528.09 50 
7150 6450 50 7348.55 11931.7 50 8550 11750 50 
7993.89 8150.92 50 8950 7850 50 7431.63 13261 50 
8050 14050 50 8241.28 12710.6 50 9250 12650 50 
7236.33 6741.24 50 7950 5950 50 8072.82 7061.06 50 
9050 6750 50 7888.53 6266.49 50 8750 5950 50 
7033.48 13017.1 50 6950 14250 50 8840.04 7806.29 50 
9650 7350 50 8654.86 12797.8 50 9250 13450 50 
7855.04 13949 50 7850 14850 50 8034.57 14054.5 50 
8650 14450 50 8513.65 11793.6 50 9450 11750 50 
9243.46 11907.4 50 10050 12250 50 9058.48 13075.4 50 
10050 13150 50 7974.65 6013.41 50 8350 5250 50 
9212.62 7596.4 50 9950 8050 50 8698.33 6023.28 50 
9550 5850 50 8989.3 6793.54 50 9950 6550 50 
8330.63 5503.19 50 9150 5150 50 9608.92 7422.24 50 
10450 7250 50 6998.04 14178.1 50 7050 15050 50 
7992.02 14657.6 50 8350 15450 50 7169.21 14841.2 50 
7550 15550 50 9959.91 12280.4 50 10650 12750 50 
9823.05 7812.56 50 10550 7850 50 9923.4 6620.63 50 
10550 6550 50 9225.2 5737.17 50 9850 5150 50 
8394.57 5315.38 50 8750 4650 50 9900.71 13238.1 50 
10650 13550 50 8906.25 5123.28 50 9450 4550 50 
10023 12259.1 50 10750 11950 50 10348.9 7221.12 50 
11050 6950 50 10542 12506.2 50 11250 12550 50 
10670.3 12676.1 50 11250 13250 50 10455.2 7779.02 50 
11250 7650 50 9508.34 5787.48 50 10250 5750 50 
9734.06 5169.9 50 10150 4550 50 9950 5627.99 50 
10450 5250 50 10937.5 7114.45 50 11650 7150 50 
11163.4 12620 50 11750 12850 50 10467.4 6494.25 50 
11150 6250 50 11035.7 6357.95 50 11650 6550 50 
9332 4565.45 50 9650 3950 50 10123.6 4769.96 50 
10650 4450 50 10713.4 12048.9 50 11450 11950 50 
11163.7 7719.29 50 11850 7750 50 9597.26 4214.64 50 
10250 3950 50 10606.2 13534.2 50 11350 13850 50 
11572.7 12853.5 50 11950 13450 50 11323.3 12073.6 50 
12050 12250 50 11590 7110.62 50 12250 7050 50 
11729.4 12838.1 50 12350 12750 50 11770.4 7684.17 50 
12350 7550 50 11544.3 6417.18 50 12150 6350 50 
11871.8 13179.5 50 12550 13350 50 12098 6962.25 50 
12650 6650 50 7946.17 14785.6 50 7950 14950 50 
9888.02 4872.34 50 9950 4450 50 12296.3 6876.23 50 
12450 6950 50 12257.1 13160.9 50 12450 13050 50 

LINES 167 501
2 4 1 
2 0 2 
2 8 3 
2 2 4 
2 4 5 
2 2 6 
2 6 7 
2 6 8 
2 10 9 
2 8 10 
2 14 11 
2 10 12 
2 18 13 
2 12 14 
2 20 15 
2 14 16 
2 16 17 
2 22 18 
2 28 19 
2 16 20 
2 30 21 
2 12 22 
2 24 23 
2 22 24 
2 32 25 
2 20 26 
2 34 27 
2 18 28 
2 36 29 
2 26 30 
2 38 31 
2 24 32 
2 40 33 
2 26 34 
2 42 35 
2 28 36 
2 48 37 
2 30 38 
2 50 39 
2 44 40 
2 56 41 
2 46 42 
2 52 43 
2 32 44 
2 54 45 
2 34 46 
2 70 47 
2 36 48 
2 62 49 
2 60 50 
2 68 51 
2 42 52 
2 64 53 
2 44 54 
2 76 55 
2 40 56 
2 82 57 
2 54 58 
2 80 59 
2 38 60 
2 88 61 
2 48 62 
2 86 63 
2 52 64 
2 74 65 
2 50 66 
2 160 67 
2 66 68 
2 68 69 
2 46 70 
2 72 71 
2 70 72 
2 108 73 
2 64 74 
2 104 75 
2 58 76 
2 102 77 
2 62 78 
2 96 79 
2 58 80 
2 118 81 
2 56 82 
2 98 83 
2 76 84 
2 106 85 
2 78 86 
2 110 87 
2 60 88 
2 92 89 
2 66 90 
2 90 91 
2 88 92 
2 92 93 
2 72 94 
2 114 95 
2 78 96 
2 116 97 
2 82 98 
2 128 99 
2 80 100 
2 120 101 
2 84 102 
2 102 103 
2 74 104 
2 142 105 
2 84 106 
2 132 107 
2 94 108 
2 136 109 
2 86 110 
2 124 111 
2 94 112 
2 126 113 
2 112 114 
2 114 115 
2 96 116 
2 138 117 
2 100 118 
2 122 119 
2 100 120 
2 134 121 
2 118 122 
2 122 123 
2 110 124 
2 148 125 
2 112 126 
2 150 127 
2 98 128 
2 130 129 
2 128 130 
2 154 131 
2 106 132 
2 140 133 
2 162 134 
2 134 135 
2 108 136 
2 146 137 
2 116 138 
2 152 139 
2 132 140 
2 140 141 
2 104 142 
2 142 143 
2 126 144 
2 156 145 
2 136 146 
2 146 147 
2 124 148 
2 158 149 
2 144 150 
2 150 151 
2 138 152 
2 152 153 
2 130 154 
2 154 155 
2 144 156 
2 166 157 
2 148 158 
2 164 159 
2 90 160 
2 160 161 
2 120 162 
2 162 163 
2 158 164 
2 164 165 
2 156 166 
2 166 167 

CELL_DATA 167
SCALARS radius float
LOOKUP_TABLE default
92.9635 100 89.6332 96.4176 92.9635 96.4176 92.9635 92.9635 86.4222 
89.6332 80.3411 86.4222 77.463 83.3262 74.6879 80.3411 77.463 80.3411 
74.6879 77.463 69.4326 83.3262 77.463 80.3411 74.6879 74.6879 69.4326 
77.463 72.0123 72.0123 66.9452 77.463 69.4326 72.0123 64.547 74.6879 
69.4326 69.4326 62.2346 72.0123 66.9452 66.9452 62.2346 74.6879 69.4326 
69.4326 64.547 72.0123 66.9452 64.547 57.8555 64.547 60.0051 72.0123 
64.547 69.4326 64.547 69.4326 64.547 66.9452 62.2346 69.4326 62.2346 
62.2346 57.8555 62.2346 55.7829 60.0051 57.8555 66.9452 62.2346 64.547 
57.8555 60.0051 55.7829 66.9452 60.0051 66.9452 62.2346 66.9452 60.0051 
66.9452 62.2346 64.547 60.0051 64.547 60.0051 64.547 60.0051 60.0051 
57.8555 62.2346 60.0051 62.2346 55.7829 64.547 60.0051 64.547 60.0051 
64.547 60.0051 62.2346 60.0051 57.8555 53.7845 62.2346 57.8555 60.0051 
55.7829 62.2346 57.8555 60.0051 55.7829 57.8555 55.7829 62.2346 57.8555 
62.2346 57.8555 62.2346 55.7829 60.0051 57.8555 60.0051 55.7829 57.8555 
51.8578 62.2346 57.8555 60.0051 55.7829 60.0051 55.7829 57.8555 55.7829 
57.8555 53.7845 60.0051 55.7829 57.8555 55.7829 55.7829 53.7845 55.7829 
51.8578 55.7829 53.7845 57.8555 53.7845 53.7845 51.8578 57.8555 55.7829 
57.8555 55.7829 53.7845 50 55.7829 51.8578 57.8555 55.7829 60.0051 
57.8555 53.7845 51.8578 51.8578 50 
