# vtk DataFile Version 4.1
vtk output
ASCII
DATASET POLYDATA
POINTS 168 float
100 9850 50 150 10550 50 100 9850 50 
2050 9750 50 65 9920 50 50 9950 50 
1030 10078 50 1750 10750 50 1669.8 10029.3 50 
3050 10550 50 2833.92 10257.7 50 4250 10250 50 
3569.8 10085.9 50 4550 9050 50 4207.93 10220.6 50 
5650 10450 50 4443.5 9575.25 50 5850 9150 50 
4771.18 10468.6 50 5450 11550 50 5398.11 10570 50 
6550 11250 50 5245.21 9178.86 50 5850 8050 50 
5806.32 9160.1 50 7050 9150 50 5792.32 8445.1 50 
6950 8050 50 5456.78 11456 50 6250 12450 50 
6461.39 11228.4 50 7550 11950 50 5904.58 8139.5 50 
6450 7250 50 6248.17 12271.9 50 7150 12950 50 
6840.21 9040.73 50 7950 8350 50 6721.43 8016.68 50 
7550 7050 50 7484.73 11944.8 50 8250 12550 50 
7823.65 8319.77 50 8450 7650 50 7029.41 12929 50 
7750 13650 50 7536.86 7275.34 50 8450 6750 50 
7775.54 12174.8 50 8650 11850 50 8219.89 12518.7 50 
8950 13050 50 7546.06 7117.6 50 7750 6050 50 
8445.57 7752.33 50 9150 7250 50 6654.36 12761.4 50 
6750 13750 50 7541.44 13567.3 50 7650 14450 50 
7876.11 6506.45 50 8550 5850 50 7738.95 13657.2 50 
8550 14050 50 8469.94 12033.7 50 9550 12350 50 
8241.01 8097.4 50 9250 8150 50 8409.79 6862.11 50 
9350 6550 50 8912.37 12908 50 9650 13150 50 
9095.12 8021.17 50 9850 7750 50 7704.69 14281.7 50 
8250 14950 50 8945.71 6572.21 50 9350 5750 50 
9120.23 7366.93 50 10050 6950 50 9530.78 12300.3 50 
10250 12450 50 7666.41 14399.5 50 7350 15150 50 
8170.53 5969.1 50 8350 5150 50 9609.96 13072.6 50 
10350 13150 50 9836.83 7787.08 50 10450 7650 50 
8370.83 5474.21 50 9050 4950 50 7973.52 14760.6 50 
7950 15650 50 8195.23 14953.7 50 8550 15450 50 
9364.97 5807.33 50 9750 5250 50 8337.58 14088.9 50 
8950 14750 50 10022.9 7022.06 50 10750 6850 50 
10130.3 12334.1 50 10850 12250 50 9637.99 13126.8 50 
10150 13750 50 9288.16 6517.55 50 10150 6250 50 
10281.2 13181.2 50 10950 13350 50 10400.7 7648.83 50 
11150 7450 50 8999 4935.81 50 9450 4450 50 
10610.5 12370.2 50 11350 12850 50 9668.44 5503.65 50 
10350 5350 50 10685.3 6905.06 50 11350 6850 50 
9771.88 5315.65 50 10250 4650 50 10070.2 6335.62 50 
10850 6250 50 10685.5 7573.28 50 11150 8050 50 
10831 12287.7 50 11450 12150 50 9445.68 4493.46 50 
9950 4050 50 10932 13324 50 11650 13450 50 
11071.4 7521.15 50 11750 7650 50 11222.2 12602.1 50 
11950 12650 50 11377.6 7489.98 50 11950 7050 50 
11115 6736.43 50 11650 6350 50 10247.3 4697.76 50 
10650 4250 50 11391.9 12194.1 50 11950 12150 50 
9596.98 4360.42 50 9450 3750 50 10217.4 5299.46 50 
10850 4950 50 11684.7 12767 50 12250 13150 50 
9896.68 4063.81 50 10250 3550 50 11714.1 7330.39 50 
12350 7450 50 11546.7 6513.25 50 12250 6550 50 
11504.2 13521.7 50 11950 13850 50 11919.9 12700.3 50 
12550 12650 50 7890.45 14742.1 50 7950 14950 50 
9973.87 4875.54 50 9950 4450 50 11937.4 7134.14 50 
12450 6950 50 12170.1 12996.9 50 12450 13050 50 

LINES 167 501
2 4 1 
2 0 2 
2 8 3 
2 2 4 
2 4 5 
2 2 6 
2 6 7 
2 6 8 
2 10 9 
2 8 10 
2 14 11 
2 10 12 
2 16 13 
2 12 14 
2 20 15 
2 12 16 
2 24 17 
2 14 18 
2 28 19 
2 18 20 
2 30 21 
2 16 22 
2 32 23 
2 22 24 
2 36 25 
2 22 26 
2 38 27 
2 18 28 
2 34 29 
2 20 30 
2 40 31 
2 26 32 
2 32 33 
2 28 34 
2 44 35 
2 24 36 
2 42 37 
2 26 38 
2 52 39 
2 30 40 
2 50 41 
2 36 42 
2 54 43 
2 56 44 
2 62 45 
2 38 46 
2 68 47 
2 40 48 
2 64 49 
2 48 50 
2 70 51 
2 46 52 
2 60 53 
2 66 54 
2 78 55 
2 34 56 
2 56 57 
2 44 58 
2 82 59 
2 52 60 
2 84 61 
2 58 62 
2 98 63 
2 48 64 
2 80 65 
2 42 66 
2 72 67 
2 46 68 
2 106 69 
2 50 70 
2 104 71 
2 66 72 
2 88 73 
2 58 74 
2 94 75 
2 68 76 
2 96 77 
2 54 78 
2 100 79 
2 64 80 
2 102 81 
2 74 82 
2 82 83 
2 60 84 
2 90 85 
2 70 86 
2 108 87 
2 72 88 
2 110 89 
2 84 90 
2 112 91 
2 160 92 
2 92 93 
2 92 94 
2 94 95 
2 76 96 
2 120 97 
2 62 98 
2 98 99 
2 78 100 
2 118 101 
2 80 102 
2 126 103 
2 86 104 
2 104 105 
2 76 106 
2 122 107 
2 86 108 
2 130 109 
2 88 110 
2 132 111 
2 90 112 
2 128 113 
2 102 114 
2 134 115 
2 96 116 
2 146 117 
2 100 118 
2 138 119 
2 116 120 
2 140 121 
2 106 122 
2 122 123 
2 110 124 
2 124 125 
2 114 126 
2 142 127 
2 112 128 
2 150 129 
2 108 130 
2 156 131 
2 124 132 
2 136 133 
2 114 134 
2 158 135 
2 132 136 
2 164 137 
2 118 138 
2 154 139 
2 162 140 
2 140 141 
2 126 142 
2 142 143 
2 128 144 
2 144 145 
2 116 146 
2 146 147 
2 134 148 
2 166 149 
2 144 150 
2 150 151 
2 136 152 
2 152 153 
2 138 154 
2 154 155 
2 130 156 
2 156 157 
2 148 158 
2 158 159 
2 74 160 
2 160 161 
2 120 162 
2 162 163 
2 152 164 
2 164 165 
2 148 166 
2 166 167 

CELL_DATA 167
SCALARS radius float
LOOKUP_TABLE default
92.9635 100 89.6332 96.4176 92.9635 96.4176 92.9635 92.9635 86.4222 
89.6332 80.3411 86.4222 80.3411 83.3262 74.6879 83.3262 74.6879 80.3411 
74.6879 77.463 72.0123 80.3411 72.0123 77.463 72.0123 77.463 72.0123 
77.463 72.0123 74.6879 69.4326 74.6879 72.0123 74.6879 66.9452 74.6879 
69.4326 74.6879 66.9452 72.0123 64.547 72.0123 64.547 69.4326 62.2346 
72.0123 66.9452 69.4326 64.547 66.9452 62.2346 69.4326 64.547 66.9452 
62.2346 72.0123 69.4326 66.9452 60.0051 66.9452 62.2346 64.547 60.0051 
66.9452 62.2346 69.4326 64.547 69.4326 62.2346 64.547 57.8555 66.9452 
62.2346 64.547 55.7829 66.9452 62.2346 64.547 60.0051 64.547 60.0051 
62.2346 60.0051 64.547 60.0051 62.2346 57.8555 64.547 60.0051 62.2346 
57.8555 60.0051 57.8555 57.8555 55.7829 64.547 57.8555 62.2346 60.0051 
62.2346 57.8555 62.2346 55.7829 60.0051 57.8555 64.547 60.0051 60.0051 
55.7829 62.2346 55.7829 60.0051 55.7829 60.0051 55.7829 62.2346 57.8555 
60.0051 55.7829 60.0051 53.7845 62.2346 60.0051 60.0051 57.8555 57.8555 
53.7845 57.8555 51.8578 57.8555 53.7845 57.8555 53.7845 57.8555 51.8578 
55.7829 50 57.8555 53.7845 55.7829 53.7845 55.7829 53.7845 55.7829 
53.7845 60.0051 57.8555 55.7829 51.8578 53.7845 51.8578 53.7845 51.8578 
55.7829 53.7845 55.7829 53.7845 53.7845 51.8578 62.2346 60.0051 57.8555 
55.7829 51.8578 50 53.7845 51.8578 
