# vtk DataFile Version 4.1
vtk output
ASCII
DATASET POLYDATA
POINTS 166 float
100 9850 50 150 10550 50 100 9850 50 
1950 9650 50 65 9920 50 50 9950 50 
124.5 10361 50 1250 10950 50 1462 9982 50 
2850 10550 50 2658.8 10238.8 50 4150 10250 50 
3431.49 10076.3 50 4450 9050 50 4080.52 10259.2 50 
5450 10750 50 4378.6 9432.52 50 5650 8950 50 
5215.3 9269.48 50 6450 9750 50 5347.77 10648.9 50 
6650 10950 50 5637.85 9005.82 50 6650 8550 50 
5419.33 10719.7 50 5850 12050 50 5923.28 11439.4 50 
6850 12150 50 5646.36 8966.75 50 5850 7750 50 
6337.75 8555.54 50 6950 7450 50 6619.77 8525.27 50 
7750 8350 50 6591.51 11788.5 50 7850 11750 50 
6843.53 12135.5 50 7450 12950 50 6978.08 7691.77 50 
7750 7050 50 7479.53 11889.5 50 8350 12650 50 
7625.82 8246.85 50 8450 7950 50 7339.93 12913.3 50 
7750 13750 50 7726.99 7171.37 50 8550 6750 50 
7442.4 7369.12 50 7350 6250 50 8127.45 12630.6 50 
8550 13450 50 7801.06 11821.1 50 8850 11750 50 
8344.33 7928.74 50 9250 7450 50 8283.23 12644.2 50 
9350 12650 50 8036.42 6872.61 50 8350 5850 50 
7410.06 13326.4 50 7050 14250 50 7331.63 13835 50 
7750 14650 50 8454.25 6708.91 50 9150 6150 50 
7743.02 13685.7 50 8550 14350 50 8794.25 11823.1 50 
9550 11950 50 8571.18 13084.7 50 9350 13550 50 
9128.18 7435.2 50 9850 6850 50 8767.61 7662.23 50 
9650 8150 50 9415.7 12039.2 50 10150 12450 50 
8417.65 6037.23 50 8950 5350 50 9172.16 13242.7 50 
10050 13250 50 7452.63 14290.3 50 7150 15050 50 
9394.45 7803.87 50 10250 7750 50 7673.92 14636.1 50 
7950 15450 50 9123.02 6144.14 50 9650 5650 50 
8347.77 14333.4 50 8750 15050 50 9699.53 7186.89 50 
10550 7050 50 10055 12458.6 50 10650 12950 50 
9861.77 6871.71 50 10150 6350 50 8370.3 5906.17 50 
8250 5050 50 8837.03 5352.28 50 9150 4750 50 
9049.35 5133.34 50 9750 4950 50 10121.5 12452.6 50 
10850 12150 50 10227.4 7727.93 50 10950 7650 50 
9866.87 13359.1 50 10650 13650 50 10532.4 12658.1 50 
11250 12750 50 10445.8 7009.81 50 11150 6750 50 
9176.72 4858.84 50 9650 4350 50 9635.21 5735.66 50 
10350 5250 50 9665.79 4924.67 50 10250 4650 50 
10504.7 13477.6 50 11250 13450 50 10829 7569.17 50 
11550 7250 50 9158.02 4782.65 50 8950 4250 50 
10812.9 12246.8 50 11550 12150 50 11216.4 12692.6 50 
11950 12650 50 10913.7 7625.75 50 11550 7950 50 
11149 6756.35 50 11750 6550 50 9638.55 4400.83 50 
10150 3950 50 11239.1 13456.6 50 11850 13450 50 
10175.1 4625.89 50 10650 4250 50 11487.3 7324.14 50 
12150 7150 50 9791.99 4265.58 50 9650 3650 50 
10289.3 5265.41 50 10950 4750 50 11796.5 12779 50 
12450 13050 50 11463.5 7792.3 50 12150 7850 50 
11510.1 12181 50 12250 12150 50 11725.7 6588.03 50 
12350 6450 50 11773.7 13508.7 50 12450 13650 50 
12041.1 7239.02 50 12650 7450 50 12318.7 7255.52 50 
12850 6950 50 7817.48 14919.3 50 7950 14950 50 
9867.59 4720.06 50 9950 4450 50 12145.2 7160.28 50 
12450 6950 50 
LINES 165 495
2 6 1 
2 0 2 
2 8 3 
2 2 4 
2 4 5 
2 4 6 
2 6 7 
2 2 8 
2 10 9 
2 8 10 
2 14 11 
2 10 12 
2 16 13 
2 12 14 
2 24 15 
2 12 16 
2 28 17 
2 16 18 
2 18 19 
2 14 20 
2 20 21 
2 18 22 
2 32 23 
2 20 24 
2 26 25 
2 24 26 
2 36 27 
2 22 28 
2 28 29 
2 22 30 
2 38 31 
2 30 32 
2 42 33 
2 26 34 
2 52 35 
2 34 36 
2 44 37 
2 30 38 
2 46 39 
2 34 40 
2 56 41 
2 32 42 
2 54 43 
2 36 44 
2 66 45 
2 48 46 
2 64 47 
2 38 48 
2 48 49 
2 40 50 
2 70 51 
2 40 52 
2 68 53 
2 42 54 
2 72 55 
2 50 56 
2 56 57 
2 46 58 
2 98 59 
2 44 60 
2 62 61 
2 60 62 
2 86 63 
2 58 64 
2 88 65 
2 60 66 
2 90 67 
2 52 68 
2 76 69 
2 50 70 
2 80 71 
2 74 72 
2 96 73 
2 54 74 
2 84 75 
2 68 76 
2 104 77 
2 58 78 
2 100 79 
2 70 80 
2 108 81 
2 62 82 
2 82 83 
2 74 84 
2 106 85 
2 82 86 
2 160 87 
2 64 88 
2 116 89 
2 66 90 
2 90 91 
2 72 92 
2 112 93 
2 76 94 
2 110 95 
2 92 96 
2 96 97 
2 78 98 
2 98 99 
2 78 100 
2 124 101 
2 100 102 
2 118 103 
2 94 104 
2 126 105 
2 84 106 
2 130 107 
2 80 108 
2 120 109 
2 94 110 
2 128 111 
2 92 112 
2 132 113 
2 102 114 
2 134 115 
2 88 116 
2 144 117 
2 102 118 
2 138 119 
2 108 120 
2 136 121 
2 106 122 
2 140 123 
2 114 124 
2 124 125 
2 104 126 
2 150 127 
2 110 128 
2 146 129 
2 122 130 
2 148 131 
2 112 132 
2 152 133 
2 114 134 
2 142 135 
2 120 136 
2 154 137 
2 162 138 
2 138 139 
2 122 140 
2 164 141 
2 134 142 
2 142 143 
2 116 144 
2 144 145 
2 128 146 
2 146 147 
2 130 148 
2 148 149 
2 126 150 
2 150 151 
2 132 152 
2 152 153 
2 136 154 
2 154 155 
2 140 156 
2 158 157 
2 156 158 
2 158 159 
2 86 160 
2 160 161 
2 118 162 
2 162 163 
2 156 164 
2 164 165 

CELL_DATA 165
SCALARS radius float
LOOKUP_TABLE default
89.6332 100 92.9635 96.4176 92.9635 92.9635 89.6332 96.4176 89.6332 
92.9635 83.3262 89.6332 83.3262 86.4222 77.463 86.4222 74.6879 83.3262 
80.3411 83.3262 80.3411 80.3411 72.0123 80.3411 74.6879 77.463 69.4326 
77.463 74.6879 77.463 72.0123 74.6879 69.4326 74.6879 66.9452 72.0123 
66.9452 74.6879 66.9452 72.0123 64.547 72.0123 66.9452 69.4326 62.2346 
69.4326 62.2346 72.0123 69.4326 69.4326 64.547 69.4326 64.547 69.4326 
62.2346 66.9452 64.547 66.9452 60.0051 66.9452 62.2346 64.547 57.8555 
64.547 60.0051 64.547 60.0051 66.9452 62.2346 66.9452 62.2346 64.547 
57.8555 66.9452 62.2346 64.547 57.8555 64.547 60.0051 64.547 60.0051 
62.2346 60.0051 64.547 60.0051 60.0051 55.7829 62.2346 57.8555 62.2346 
60.0051 62.2346 57.8555 62.2346 57.8555 60.0051 57.8555 62.2346 60.0051 
62.2346 53.7845 60.0051 55.7829 60.0051 55.7829 62.2346 55.7829 62.2346 
57.8555 60.0051 55.7829 60.0051 55.7829 57.8555 53.7845 60.0051 55.7829 
57.8555 51.8578 60.0051 55.7829 60.0051 55.7829 55.7829 53.7845 57.8555 
53.7845 57.8555 53.7845 57.8555 53.7845 57.8555 53.7845 55.7829 51.8578 
57.8555 53.7845 53.7845 51.8578 57.8555 51.8578 53.7845 51.8578 57.8555 
55.7829 55.7829 53.7845 55.7829 53.7845 55.7829 53.7845 55.7829 53.7845 
55.7829 53.7845 55.7829 51.8578 53.7845 51.8578 57.8555 55.7829 55.7829 
53.7845 53.7845 51.8578 
