# vtk DataFile Version 4.1
vtk output
ASCII
DATASET POLYDATA
POINTS 168 float
100 9850 50 150 10650 50 100 9850 50 
2050 10050 50 65 9920 50 50 9950 50 
974 10206 50 1550 10950 50 1827.4 10188.6 50 
3150 10650 50 2841.09 10390.5 50 4250 9950 50 
3882.88 10202.2 50 5150 10650 50 4230.77 9966.61 50 
5450 9150 50 4961.88 10459.1 50 6250 10150 50 
5093.56 10592.7 50 6050 11350 50 5334.88 9116.15 50 
6250 8350 50 5855.25 11029 50 7050 10950 50 
5902.26 8641.14 50 7150 9150 50 6061.1 11286.6 50 
6950 12250 50 6198.47 8363.19 50 6950 7550 50 
6775.68 8997.34 50 7650 8250 50 6683.33 11961 50 
7850 11750 50 6933.33 12223.7 50 7650 12950 50 
6961.51 7698.22 50 7850 7150 50 7435 12732.1 50 
8450 12450 50 6953.45 7594.47 50 6950 6650 50 
6945 12242.1 50 6750 13350 50 7553.93 8409.78 50 
8650 7950 50 7817.68 7269.43 50 8750 6950 50 
7585.5 12884.6 50 7550 13950 50 7840.31 7185.83 50 
7850 6150 50 7682.94 13307.4 50 8350 13850 50 
7794 11772.6 50 8650 11650 50 8377.2 12512.3 50 
9350 12350 50 8149.88 13687.2 50 9150 13350 50 
8610.94 7948.35 50 9450 7550 50 7847.09 6460.75 50 
8750 5950 50 7613.9 13874.5 50 7750 14650 50 
7569.17 13927.4 50 6850 14150 50 8741.04 6984.19 50 
9550 6750 50 7709.17 14417.4 50 8450 14650 50 
9185.34 12449.8 50 10050 12750 50 7890.52 6196.48 50 
8150 5350 50 9444.63 7561.6 50 10150 7250 50 
9307.31 6820.26 50 9550 5950 50 8534.21 5989.9 50 
8950 5250 50 9300.6 12379.9 50 10050 11950 50 
7737.75 14580.2 50 7250 15150 50 9061.13 7739.51 50 
9750 8250 50 7746.33 14629.1 50 7950 15550 50 
8977.97 13483.1 50 9850 13650 50 7930.13 15052.3 50 
8550 15350 50 9538.23 6757.83 50 10350 6550 50 
9519.76 5962.86 50 9650 5250 50 9914.54 12640.9 50 
10750 12550 50 10009.4 12717.3 50 10550 13350 50 
9881.96 7368.41 50 10550 7850 50 10132.7 7286.92 50 
10850 7150 50 8748.48 5438.97 50 8550 4750 50 
8873.1 5263.49 50 9250 4550 50 9540.93 5953.86 50 
10150 5750 50 9202.09 4799.72 50 9850 4550 50 
10458.8 13114.5 50 11250 13250 50 10006.2 12059.6 50 
10750 11850 50 10286.2 6588.51 50 11050 6450 50 
10467.6 7705.97 50 11250 7750 50 9641.4 4713.38 50 
10350 4950 50 10951.8 13107.8 50 11550 12650 50 
10816.5 7165.81 50 11550 7050 50 9271.4 4587.38 50 
9550 4050 50 9846.99 4579.18 50 10350 4350 50 
11246.9 13237.7 50 11750 13450 50 11034.7 6483.24 50 
11650 6450 50 11402.5 12689.6 50 11650 12050 50 
11249.1 13246.3 50 11050 13850 50 11212.5 7691.71 50 
11850 7650 50 11505.7 12661.9 50 12150 12650 50 
11668.9 7594.6 50 12150 7150 50 10199.1 4418.75 50 
10250 3750 50 10263.2 4846.28 50 10850 4850 50 
10214.4 4218.13 50 10750 3950 50 11657.9 13347.7 50 
12350 13250 50 11621.1 6488.64 50 12250 6550 50 
12205.1 13220.4 50 12650 12850 50 11627.6 12325 50 
12250 12050 50 7916.47 14917.2 50 7950 14950 50 
9849.1 4558.75 50 9950 4450 50 12136.5 7194.93 50 
12450 6950 50 12422.3 13058.3 50 12450 13050 50 

LINES 167 501
2 4 1 
2 0 2 
2 8 3 
2 2 4 
2 4 5 
2 2 6 
2 6 7 
2 6 8 
2 10 9 
2 8 10 
2 14 11 
2 10 12 
2 18 13 
2 12 14 
2 20 15 
2 12 16 
2 16 17 
2 16 18 
2 26 19 
2 14 20 
2 28 21 
2 18 22 
2 22 23 
2 20 24 
2 30 25 
2 22 26 
2 42 27 
2 24 28 
2 40 29 
2 24 30 
2 44 31 
2 26 32 
2 54 33 
2 32 34 
2 48 35 
2 28 36 
2 50 37 
2 34 38 
2 56 39 
2 36 40 
2 40 41 
2 34 42 
2 42 43 
2 30 44 
2 60 45 
2 36 46 
2 68 47 
2 38 48 
2 66 49 
2 46 50 
2 74 51 
2 48 52 
2 58 53 
2 32 54 
2 54 55 
2 38 56 
2 82 57 
2 52 58 
2 90 59 
2 44 60 
2 76 61 
2 50 62 
2 80 63 
2 52 64 
2 88 65 
2 64 66 
2 66 67 
2 46 68 
2 94 69 
2 64 70 
2 70 71 
2 56 72 
2 100 73 
2 62 74 
2 74 75 
2 86 76 
2 104 77 
2 68 78 
2 110 79 
2 62 80 
2 108 81 
2 72 82 
2 116 83 
2 70 84 
2 84 85 
2 60 86 
2 86 87 
2 84 88 
2 92 89 
2 58 90 
2 90 91 
2 160 92 
2 92 93 
2 78 94 
2 118 95 
2 78 96 
2 96 97 
2 72 98 
2 98 99 
2 98 100 
2 114 101 
2 76 102 
2 120 103 
2 102 104 
2 126 105 
2 80 106 
2 106 107 
2 106 108 
2 128 109 
2 96 110 
2 110 111 
2 108 112 
2 162 113 
2 100 114 
2 138 115 
2 82 116 
2 116 117 
2 94 118 
2 134 119 
2 102 120 
2 140 121 
2 112 122 
2 148 123 
2 114 124 
2 142 125 
2 104 126 
2 126 127 
2 112 128 
2 128 129 
2 122 130 
2 146 131 
2 124 132 
2 152 133 
2 118 134 
2 154 135 
2 124 136 
2 158 137 
2 132 138 
2 138 139 
2 120 140 
2 144 141 
2 136 142 
2 142 143 
2 140 144 
2 164 145 
2 130 146 
2 150 147 
2 122 148 
2 148 149 
2 146 150 
2 150 151 
2 132 152 
2 156 153 
2 134 154 
2 154 155 
2 152 156 
2 166 157 
2 136 158 
2 158 159 
2 88 160 
2 160 161 
2 130 162 
2 162 163 
2 144 164 
2 164 165 
2 156 166 
2 166 167 

CELL_DATA 167
SCALARS radius float
LOOKUP_TABLE default
92.9635 100 89.6332 96.4176 92.9635 96.4176 92.9635 92.9635 86.4222 
89.6332 80.3411 86.4222 77.463 83.3262 77.463 83.3262 80.3411 80.3411 
72.0123 80.3411 72.0123 77.463 74.6879 77.463 72.0123 74.6879 64.547 
74.6879 66.9452 74.6879 69.4326 72.0123 66.9452 69.4326 62.2346 72.0123 
64.547 66.9452 62.2346 69.4326 66.9452 66.9452 64.547 72.0123 66.9452 
69.4326 64.547 64.547 55.7829 66.9452 60.0051 62.2346 57.8555 69.4326 
66.9452 64.547 57.8555 60.0051 55.7829 69.4326 62.2346 64.547 60.0051 
60.0051 51.8578 57.8555 55.7829 66.9452 60.0051 57.8555 55.7829 62.2346 
55.7829 62.2346 60.0051 64.547 57.8555 64.547 57.8555 62.2346 55.7829 
60.0051 55.7829 55.7829 53.7845 66.9452 64.547 53.7845 48.2088 57.8555 
55.7829 50 48.2088 62.2346 57.8555 62.2346 60.0051 60.0051 57.8555 
57.8555 53.7845 62.2346 57.8555 60.0051 55.7829 60.0051 57.8555 57.8555 
51.8578 60.0051 57.8555 55.7829 48.2088 55.7829 48.2088 57.8555 55.7829 
60.0051 55.7829 60.0051 55.7829 53.7845 50 53.7845 48.2088 57.8555 
55.7829 53.7845 51.8578 51.8578 48.2088 51.8578 48.2088 57.8555 53.7845 
51.8578 48.2088 50 48.2088 57.8555 53.7845 50 48.2088 55.7829 
51.8578 50 46.4818 51.8578 50 48.2088 46.4818 50 46.4818 
55.7829 53.7845 48.2088 44.8166 50 48.2088 51.8578 50 50 
48.2088 53.7845 51.8578 46.4818 44.8166 
