# vtk DataFile Version 4.1
vtk output
ASCII
DATASET POLYDATA
POINTS 168 float
100 9850 50 150 10650 50 100 9850 50 
2050 10250 50 65 9920 50 50 9950 50 
1058 9778 50 1850 9250 50 1870.8 10028.8 50 
3250 9850 50 2879.28 10038.6 50 4050 10750 50 
3242.93 9848.18 50 4550 9150 50 4365.09 9394.51 50 
5750 9550 50 4011.37 10662.3 50 5250 11250 50 
4984.48 10960.3 50 6450 10650 50 4494.53 9223.35 50 
5450 8350 50 5283.58 8697.67 50 6650 8650 50 
5247.83 11237.4 50 6050 12050 50 6035.07 10884.6 50 
7150 11550 50 5463.81 8443.13 50 6250 7550 50 
6464.75 8497.26 50 7550 8050 50 5973.41 11914.6 50 
7050 12650 50 7106.42 11502.3 50 7950 11950 50 
7137.6 8219.96 50 7250 7050 50 7587.26 11883.5 50 
7950 12850 50 7517.66 8053.48 50 8350 7650 50 
7322.66 7403.48 50 8050 6650 50 6659.19 12518.6 50 
6950 13550 50 6974.22 13231 50 7850 13850 50 
7920.02 11935.4 50 8850 12050 50 8571.01 12015.6 50 
8950 13050 50 8307.65 7639.12 50 9150 7150 50 
7753.43 6815.72 50 7750 5950 50 8006.48 6637.26 50 
8650 6050 50 6990.35 13499.3 50 7150 14350 50 
8337.3 7646.73 50 9050 8250 50 7835.81 13813.4 50 
8550 14250 50 7845.74 13839 50 7950 14750 50 
8811.39 12071.7 50 9750 12350 50 8945.67 12784.7 50 
9650 13150 50 8992.45 7138.52 50 9550 6550 50 
9102.73 7146.56 50 9850 7650 50 7806.93 6099.74 50 
8150 5350 50 8127.92 5598.41 50 8850 5250 50 
9382.73 6726.56 50 10150 6850 50 9654.72 12415 50 
10350 12750 50 9499.82 6602.97 50 9650 5750 50 
7126.91 14301.8 50 7250 15150 50 7916.64 14682.5 50 
7950 15550 50 7939.99 14729.7 50 8750 15050 50 
9721.41 12369.5 50 10250 11950 50 10012.8 6900.67 50 
10650 7450 50 9592.61 13145.1 50 10250 13550 50 
8844.7 5249.62 50 9450 4950 50 8008.32 15274.4 50 
8450 15750 50 10108.9 6865.2 50 10850 6750 50 
10135 12550 50 10950 12350 50 10341.6 12734 50 
10950 13250 50 9679.45 5924.3 50 10150 5350 50 
10413 7355.73 50 10550 8150 50 10613.1 7387.92 50 
11250 7350 50 9123.14 5111.79 50 9150 4350 50 
9139.79 4639.48 50 9750 4350 50 10767.5 13095.2 50 
11550 12850 50 10055.4 5365.78 50 10350 4750 50 
10840.1 6749.65 50 11450 6650 50 10487 7784.64 50 
11250 8050 50 10922.4 12342 50 11550 12150 50 
10940.9 13213 50 11550 13550 50 11162 7332.24 50 
11850 7150 50 9666.73 4330.63 50 10150 3950 50 
11368.4 7277.57 50 11850 7750 50 11502.2 12824.8 50 
12050 12550 50 10367.7 4835.05 50 10750 4350 50 
11535.7 12842.5 50 12150 13250 50 11422.8 6653.89 50 
12050 6550 50 9173.61 4390.48 50 9350 3750 50 
11751.5 7236.65 50 12350 7450 50 11965.7 13127.7 50 
12650 12850 50 12170.4 7385.99 50 12650 6950 50 
12094.7 13213.3 50 12150 13850 50 11986.7 12526 50 
12450 12150 50 12133.4 13239 50 12750 13450 50 
11950.7 6536.05 50 12550 6250 50 12328.1 7412.24 50 
12950 7450 50 7951.82 14938.8 50 7950 14950 50 
9742.2 4355.67 50 9950 4450 50 12438.1 7015.4 50 
12450 6950 50 12407.4 13031.7 50 12450 13050 50 

LINES 167 501
2 4 1 
2 0 2 
2 8 3 
2 2 4 
2 4 5 
2 2 6 
2 6 7 
2 6 8 
2 12 9 
2 8 10 
2 16 11 
2 10 12 
2 20 13 
2 12 14 
2 14 15 
2 10 16 
2 24 17 
2 16 18 
2 26 19 
2 14 20 
2 28 21 
2 20 22 
2 30 23 
2 18 24 
2 32 25 
2 18 26 
2 34 27 
2 22 28 
2 28 29 
2 22 30 
2 40 31 
2 24 32 
2 44 33 
2 26 34 
2 48 35 
2 30 36 
2 42 37 
2 34 38 
2 38 39 
2 36 40 
2 60 41 
2 36 42 
2 56 43 
2 32 44 
2 58 45 
2 44 46 
2 64 47 
2 38 48 
2 66 49 
2 48 50 
2 68 51 
2 40 52 
2 72 53 
2 42 54 
2 74 55 
2 54 56 
2 56 57 
2 46 58 
2 84 59 
2 52 60 
2 60 61 
2 46 62 
2 62 63 
2 62 64 
2 88 65 
2 50 66 
2 90 67 
2 50 68 
2 94 69 
2 52 70 
2 82 71 
2 70 72 
2 72 73 
2 54 74 
2 76 75 
2 74 76 
2 96 77 
2 70 78 
2 100 79 
2 66 80 
2 104 81 
2 78 82 
2 106 83 
2 58 84 
2 84 85 
2 64 86 
2 98 87 
2 86 88 
2 88 89 
2 80 90 
2 90 91 
2 78 92 
2 110 93 
2 68 94 
2 94 95 
2 76 96 
2 112 97 
2 160 98 
2 98 99 
2 92 100 
2 120 101 
2 80 102 
2 124 103 
2 102 104 
2 126 105 
2 82 106 
2 118 107 
2 92 108 
2 122 109 
2 108 110 
2 128 111 
2 96 112 
2 142 113 
2 112 114 
2 162 115 
2 104 116 
2 138 117 
2 106 118 
2 136 119 
2 100 120 
2 140 121 
2 108 122 
2 122 123 
2 102 124 
2 124 125 
2 116 126 
2 126 127 
2 110 128 
2 144 129 
2 114 130 
2 130 131 
2 128 132 
2 132 133 
2 116 134 
2 152 135 
2 118 136 
2 136 137 
2 134 138 
2 154 139 
2 120 140 
2 156 141 
2 114 142 
2 142 143 
2 132 144 
2 158 145 
2 138 146 
2 166 147 
2 144 148 
2 164 149 
2 146 150 
2 150 151 
2 134 152 
2 152 153 
2 150 154 
2 154 155 
2 140 156 
2 156 157 
2 148 158 
2 158 159 
2 86 160 
2 160 161 
2 130 162 
2 162 163 
2 148 164 
2 164 165 
2 146 166 
2 166 167 

CELL_DATA 167
SCALARS radius float
LOOKUP_TABLE default
92.9635 100 89.6332 96.4176 92.9635 96.4176 92.9635 92.9635 83.3262 
89.6332 83.3262 86.4222 77.463 83.3262 80.3411 86.4222 77.463 83.3262 
77.463 80.3411 72.0123 77.463 72.0123 80.3411 74.6879 80.3411 74.6879 
74.6879 72.0123 74.6879 66.9452 77.463 72.0123 77.463 69.4326 72.0123 
66.9452 74.6879 72.0123 69.4326 62.2346 69.4326 62.2346 74.6879 66.9452 
72.0123 64.547 72.0123 64.547 69.4326 64.547 66.9452 60.0051 66.9452 
62.2346 64.547 62.2346 69.4326 64.547 64.547 62.2346 69.4326 66.9452 
66.9452 60.0051 66.9452 60.0051 66.9452 62.2346 64.547 57.8555 62.2346 
60.0051 64.547 60.0051 62.2346 57.8555 62.2346 55.7829 64.547 57.8555 
60.0051 55.7829 66.9452 64.547 64.547 57.8555 62.2346 60.0051 62.2346 
60.0051 60.0051 53.7845 64.547 62.2346 60.0051 55.7829 60.0051 57.8555 
57.8555 53.7845 62.2346 57.8555 60.0051 53.7845 57.8555 53.7845 57.8555 
53.7845 55.7829 51.8578 57.8555 51.8578 55.7829 50 57.8555 51.8578 
55.7829 51.8578 55.7829 51.8578 55.7829 53.7845 60.0051 57.8555 55.7829 
53.7845 53.7845 48.2088 53.7845 51.8578 51.8578 50 55.7829 51.8578 
53.7845 51.8578 53.7845 46.4818 53.7845 50 53.7845 51.8578 50 
44.8166 51.8578 48.2088 48.2088 44.8166 50 48.2088 53.7845 51.8578 
48.2088 46.4818 51.8578 50 46.4818 44.8166 62.2346 60.0051 51.8578 
50 46.4818 44.8166 50 48.2088 
