# vtk DataFile Version 4.1
vtk output
ASCII
DATASET POLYDATA
POINTS 168 float
100 9850 50 150 10650 50 100 9850 50 
2050 9950 50 65 9920 50 50 9950 50 
815.5 10031 50 1450 10950 50 1870.69 9887.87 50 
3150 9350 50 2856.24 9636.25 50 4250 10050 50 
3874.18 9793.19 50 5050 9250 50 4184.33 10059 50 
5150 11050 50 4860.3 10752.7 50 6250 10350 50 
4914.53 9382.66 50 6350 9150 50 5151.43 11006.2 50 
6050 11650 50 5009.36 9289.8 50 5350 8250 50 
5357.52 8655.11 50 6450 7950 50 5903.5 11396.7 50 
7250 11450 50 6285.49 9093.84 50 7350 8750 50 
6047.57 11626.5 50 6650 12550 50 6383.81 7951.23 50 
7150 7350 50 6862.73 11557.3 50 7850 12350 50 
7160.58 8730.84 50 8050 7950 50 7553.82 12112.2 50 
7550 13250 50 7823.86 8020.83 50 8150 6950 50 
6971.13 7386.33 50 7350 6450 50 7761.15 12278.7 50 
8750 12250 50 8136.91 12267.8 50 8650 13150 50 
8042.58 7963.79 50 8950 7750 50 8099.73 6983 50 
8250 6150 50 7439.34 12907.8 50 6750 13650 50 
7507.56 13215.5 50 7650 14250 50 8134.92 6959.9 50 
9050 6850 50 8497.47 13023.8 50 8550 13950 50 
8696.47 12268.8 50 9550 12350 50 8604.24 13112.1 50 
9450 13250 50 8855.62 7846.41 50 9650 7850 50 
8297.38 6466.19 50 9050 5850 50 7607.27 13939.6 50 
6950 14450 50 9411.69 7848.92 50 9950 7150 50 
7659.63 14228.5 50 7850 15050 50 8256.37 6173.96 50 
8150 5350 50 9319.64 13170.8 50 10150 12950 50 
8589.19 13849.6 50 8750 14650 50 9472.87 12296 50 
10250 12250 50 8824.21 6034.86 50 9650 6250 50 
9626.46 7835.45 50 10350 7750 50 8982.26 5905.46 50 
9050 5050 50 9904.8 7149.74 50 10250 6550 50 
7868.6 14898.2 50 8350 15550 50 9270.14 6151.03 50 
9850 5550 50 7855.58 15004.5 50 7150 15350 50 
9936.44 7149.92 50 10750 7050 50 9900.89 13016.2 50 
10450 13550 50 10140.9 12950.5 50 10850 12750 50 
8051.53 15145.9 50 7750 15850 50 9110.29 5321.41 50 
9650 4850 50 10141.3 12180.7 50 10750 11950 50 
10314.5 7749.34 50 11050 7650 50 9849.84 5556.3 50 
10250 5150 50 10637.3 12810.1 50 11150 13350 50 
9094.75 5090.42 50 9150 4350 50 10794.5 12729.5 50 
11350 12350 50 10227.2 6731.91 50 10950 6350 50 
10743 7044.97 50 11450 6950 50 9200.66 4581.15 50 
9650 4150 50 10955.2 13144.9 50 11650 12950 50 
10123.9 5194.2 50 10350 4450 50 11029.9 7686.76 50 
11650 7650 50 11270 12466.5 50 11850 12450 50 
11151.8 13320.2 50 11650 13650 50 11237.9 6978.49 50 
11650 6350 50 11408.9 6994.81 50 12050 7150 50 
9618.21 4175.97 50 10050 3750 50 11595.7 13012.4 50 
12250 12950 50 10107.7 5315.72 50 10850 4950 50 
10389.7 4548.15 50 10750 3950 50 11526.4 6538.55 50 
12250 6550 50 11918.9 7178.1 50 12350 7650 50 
11832.4 12427.3 50 12450 12350 50 11949 12978.7 50 
12350 13550 50 12010.7 7158.43 50 12650 7150 50 
12228.6 12932 50 12850 12750 50 12229.7 13378.6 50 
12850 13350 50 7894.23 14834 50 7950 14950 50 
10365.1 4487.3 50 9950 4450 50 12329.4 7069.12 50 
12450 6950 50 12243.6 12944.6 50 12450 13050 50 

LINES 167 501
2 4 1 
2 0 2 
2 8 3 
2 2 4 
2 4 5 
2 2 6 
2 6 7 
2 6 8 
2 10 9 
2 8 10 
2 14 11 
2 10 12 
2 22 13 
2 12 14 
2 20 15 
2 14 16 
2 16 17 
2 12 18 
2 28 19 
2 16 20 
2 30 21 
2 18 22 
2 24 23 
2 22 24 
2 32 25 
2 20 26 
2 34 27 
2 18 28 
2 36 29 
2 26 30 
2 30 31 
2 24 32 
2 42 33 
2 26 34 
2 44 35 
2 28 36 
2 48 37 
2 34 38 
2 54 39 
2 36 40 
2 56 41 
2 32 42 
2 42 43 
2 38 44 
2 60 45 
2 44 46 
2 62 47 
2 40 48 
2 64 49 
2 40 50 
2 74 51 
2 38 52 
2 52 53 
2 52 54 
2 72 55 
2 50 56 
2 56 57 
2 46 58 
2 78 59 
2 46 60 
2 80 61 
2 58 62 
2 76 63 
2 48 64 
2 84 65 
2 50 66 
2 86 67 
2 54 68 
2 68 69 
2 64 70 
2 96 71 
2 68 72 
2 94 73 
2 66 74 
2 74 75 
2 62 76 
2 100 77 
2 58 78 
2 78 79 
2 60 80 
2 106 81 
2 66 82 
2 92 83 
2 70 84 
2 108 85 
2 82 86 
2 114 87 
2 70 88 
2 118 89 
2 160 90 
2 102 91 
2 82 92 
2 110 93 
2 90 94 
2 94 95 
2 88 96 
2 120 97 
2 76 98 
2 98 99 
2 98 100 
2 116 101 
2 90 102 
2 102 103 
2 86 104 
2 104 105 
2 80 106 
2 106 107 
2 84 108 
2 128 109 
2 92 110 
2 126 111 
2 100 112 
2 132 113 
2 104 114 
2 122 115 
2 112 116 
2 130 117 
2 88 118 
2 118 119 
2 96 120 
2 136 121 
2 114 122 
2 138 123 
2 112 124 
2 140 125 
2 142 126 
2 162 127 
2 108 128 
2 128 129 
2 116 130 
2 150 131 
2 124 132 
2 132 133 
2 120 134 
2 146 135 
2 134 136 
2 154 137 
2 122 138 
2 138 139 
2 124 140 
2 166 141 
2 110 142 
2 142 143 
2 126 144 
2 144 145 
2 134 146 
2 146 147 
2 136 148 
2 148 149 
2 130 150 
2 150 151 
2 140 152 
2 158 153 
2 148 154 
2 164 155 
2 152 156 
2 156 157 
2 152 158 
2 158 159 
2 72 160 
2 160 161 
2 144 162 
2 162 163 
2 154 164 
2 164 165 
2 156 166 
2 166 167 

CELL_DATA 167
SCALARS radius float
LOOKUP_TABLE default
92.9635 100 89.6332 96.4176 92.9635 96.4176 92.9635 92.9635 86.4222 
89.6332 80.3411 86.4222 77.463 83.3262 74.6879 80.3411 77.463 83.3262 
77.463 77.463 69.4326 80.3411 74.6879 77.463 72.0123 74.6879 69.4326 
80.3411 74.6879 72.0123 69.4326 74.6879 69.4326 72.0123 64.547 77.463 
69.4326 69.4326 62.2346 74.6879 66.9452 72.0123 69.4326 66.9452 60.0051 
64.547 57.8555 72.0123 66.9452 72.0123 64.547 66.9452 64.547 64.547 
57.8555 69.4326 66.9452 62.2346 57.8555 62.2346 57.8555 60.0051 55.7829 
69.4326 62.2346 69.4326 62.2346 62.2346 60.0051 66.9452 60.0051 60.0051 
51.8578 66.9452 64.547 57.8555 51.8578 60.0051 57.8555 60.0051 55.7829 
66.9452 62.2346 64.547 60.0051 64.547 57.8555 64.547 60.0051 55.7829 
51.8578 64.547 60.0051 53.7845 51.8578 62.2346 57.8555 55.7829 53.7845 
53.7845 48.2088 53.7845 51.8578 62.2346 60.0051 57.8555 55.7829 62.2346 
57.8555 62.2346 55.7829 51.8578 46.4818 60.0051 55.7829 50 46.4818 
62.2346 60.0051 60.0051 53.7845 57.8555 53.7845 50 46.4818 57.8555 
51.8578 60.0051 57.8555 48.2088 44.8166 48.2088 46.4818 57.8555 53.7845 
55.7829 50 55.7829 53.7845 48.2088 41.6631 60.0051 57.8555 55.7829 
53.7845 55.7829 53.7845 53.7845 51.8578 46.4818 44.8166 46.4818 43.2111 
51.8578 48.2088 44.8166 43.2111 44.8166 43.2111 57.8555 55.7829 53.7845 
51.8578 50 48.2088 43.2111 41.6631 
