# vtk DataFile Version 4.1
vtk output
ASCII
DATASET POLYDATA
POINTS 168 float
100 9850 50 150 10650 50 100 9850 50 
2050 10050 50 65 9920 50 50 9950 50 
829.5 9792 50 1550 9050 50 1874.47 10064.3 50 
3150 10650 50 2871.56 10375 50 4350 10150 50 
3888.55 10074.8 50 4750 9050 50 4296.66 10195.6 50 
5650 10750 50 4561.58 9532.65 50 6050 9350 50 
5410.6 10530.3 50 6550 10250 50 5578.18 10684.1 50 
6250 11750 50 4780.98 9131.54 50 5550 8150 50 
5760.13 9259.31 50 6850 8350 50 6208.18 10334.1 50 
7250 11150 50 6256.76 11690.2 50 6850 12450 50 
6523.04 8622.79 50 6450 7350 50 6793.41 8341.3 50 
7450 7450 50 7112.62 11112.9 50 7950 11950 50 
6801.83 12328.8 50 7650 13050 50 7200.49 7788.69 50 
8250 7950 50 7454.71 7539.64 50 8250 7050 50 
7451.41 7476.89 50 7350 6450 50 7425.29 12683.9 50 
8650 12650 50 6835.55 12413.7 50 6650 13250 50 
7582.59 12940.2 50 7350 13950 50 7629.78 13017.1 50 
8250 13750 50 7835.91 11696 50 8750 11750 50 
8092.63 7836.45 50 9150 7450 50 7505.61 6821.56 50 
8150 5950 50 8191.51 7038.68 50 8950 6450 50 
8389.33 12757.2 50 9150 13350 50 8643.06 12662.6 50 
9550 12350 50 7468.8 13775.3 50 7750 14650 50 
7643.14 14317.6 50 8450 14450 50 8139.79 6144.9 50 
8850 5650 50 9064.23 7402.75 50 9750 6950 50 
9124.27 7435.82 50 9550 8150 50 9277.92 12443.8 50 
9950 12950 50 9251.99 7650.08 50 10050 7650 50 
8523.31 5877.65 50 8450 5150 50 7774.05 14591.1 50 
8250 15250 50 8751.99 5718.3 50 9650 5750 50 
7757.22 14632.3 50 6950 14750 50 9523.24 12383.8 50 
10350 12250 50 7752.16 14644.7 50 7550 15450 50 
9676.84 7086.24 50 10550 7050 50 9714.77 12870.8 50 
9950 13650 50 8820.6 5670.49 50 9250 4950 50 
9932.85 12958 50 10550 13250 50 8331.81 14519.6 50 
8950 14850 50 9728.05 6990.87 50 10250 6350 50 
10315.5 13139 50 10950 12650 50 9377.7 5654.9 50 
9950 5150 50 9918.54 7706.02 50 10650 8050 50 
10356.2 6989.79 50 10850 6550 50 10491.9 7031.94 50 
11150 7450 50 9258.94 4982.92 50 9650 4450 50 
10509.6 13184.5 50 11250 13250 50 10701.9 6681.94 50 
11350 6850 50 10792.7 12684 50 11050 11950 50 
9252.68 4959.88 50 8750 4450 50 11046.9 13157.1 50 
11650 12750 50 9948.25 5168.81 50 10450 4750 50 
11056.3 7323.12 50 11750 7350 50 11136.7 7445.14 50 
11450 7950 50 10299.5 4875.64 50 10250 4150 50 
9530.41 4509.89 50 9550 3850 50 11107.8 13185 50 
11150 13850 50 11259 6776.62 50 11950 6650 50 
11515.2 12775.9 50 11850 12150 50 11207.3 13230.5 50 
11750 13650 50 11609.5 12757.8 50 12250 12750 50 
10417.2 4754.13 50 10850 4250 50 9613.15 4038.96 50 
10050 3550 50 11630.1 13475.2 50 12250 13450 50 
11696 7369.4 50 12350 7450 50 12153.8 7425.82 50 
12550 6950 50 12057.9 12752.3 50 12450 12250 50 
12152.6 13414.8 50 12750 13150 50 11805.4 6614.19 50 
12250 6150 50 7958.25 14910.7 50 7950 14950 50 
9631.01 4480.54 50 9950 4450 50 12420.6 7021.37 50 
12450 6950 50 12379.3 13249.1 50 12450 13050 50 

LINES 167 501
2 4 1 
2 0 2 
2 8 3 
2 2 4 
2 4 5 
2 2 6 
2 6 7 
2 6 8 
2 10 9 
2 8 10 
2 14 11 
2 10 12 
2 22 13 
2 12 14 
2 20 15 
2 12 16 
2 24 17 
2 14 18 
2 26 19 
2 18 20 
2 28 21 
2 16 22 
2 22 23 
2 16 24 
2 32 25 
2 18 26 
2 34 27 
2 20 28 
2 46 29 
2 24 30 
2 30 31 
2 30 32 
2 42 33 
2 26 34 
2 52 35 
2 28 36 
2 50 37 
2 32 38 
2 54 39 
2 38 40 
2 58 41 
2 40 42 
2 56 43 
2 36 44 
2 62 45 
2 36 46 
2 46 47 
2 44 48 
2 64 49 
2 48 50 
2 50 51 
2 34 52 
2 52 53 
2 38 54 
2 72 55 
2 42 56 
2 68 57 
2 40 58 
2 58 59 
2 44 60 
2 60 61 
2 60 62 
2 86 63 
2 48 64 
2 88 65 
2 64 66 
2 98 67 
2 56 68 
2 94 69 
2 54 70 
2 100 71 
2 70 72 
2 76 73 
2 62 74 
2 96 75 
2 72 76 
2 106 77 
2 68 78 
2 78 79 
2 66 80 
2 160 81 
2 78 82 
2 104 83 
2 80 84 
2 84 85 
2 74 86 
2 86 87 
2 84 88 
2 88 89 
2 70 90 
2 110 91 
2 74 92 
2 92 93 
2 82 94 
2 120 95 
2 92 96 
2 114 97 
2 66 98 
2 98 99 
2 90 100 
2 100 101 
2 96 102 
2 118 103 
2 82 104 
2 124 105 
2 76 106 
2 106 107 
2 90 108 
2 116 109 
2 108 110 
2 128 111 
2 94 112 
2 162 113 
2 102 114 
2 140 115 
2 108 116 
2 136 117 
2 102 118 
2 118 119 
2 112 120 
2 120 121 
2 114 122 
2 142 123 
2 104 124 
2 144 125 
2 110 126 
2 150 127 
2 126 128 
2 128 129 
2 124 130 
2 130 131 
2 112 132 
2 146 133 
2 122 134 
2 134 135 
2 116 136 
2 158 137 
2 122 138 
2 138 139 
2 134 140 
2 148 141 
2 138 142 
2 154 143 
2 130 144 
2 144 145 
2 132 146 
2 146 147 
2 140 148 
2 156 149 
2 126 150 
2 152 151 
2 150 152 
2 164 153 
2 142 154 
2 154 155 
2 148 156 
2 166 157 
2 136 158 
2 158 159 
2 80 160 
2 160 161 
2 132 162 
2 162 163 
2 152 164 
2 164 165 
2 156 166 
2 166 167 

CELL_DATA 167
SCALARS radius float
LOOKUP_TABLE default
92.9635 100 89.6332 96.4176 92.9635 96.4176 92.9635 92.9635 86.4222 
89.6332 80.3411 86.4222 77.463 83.3262 74.6879 83.3262 77.463 80.3411 
74.6879 77.463 72.0123 80.3411 77.463 80.3411 72.0123 77.463 72.0123 
74.6879 66.9452 77.463 74.6879 74.6879 64.547 74.6879 69.4326 72.0123 
62.2346 72.0123 66.9452 69.4326 64.547 66.9452 62.2346 69.4326 62.2346 
69.4326 66.9452 66.9452 62.2346 64.547 62.2346 72.0123 69.4326 69.4326 
62.2346 64.547 60.0051 66.9452 64.547 66.9452 64.547 64.547 57.8555 
64.547 53.7845 62.2346 57.8555 62.2346 53.7845 66.9452 60.0051 64.547 
60.0051 62.2346 55.7829 62.2346 57.8555 60.0051 57.8555 60.0051 55.7829 
57.8555 53.7845 57.8555 55.7829 60.0051 57.8555 55.7829 53.7845 64.547 
57.8555 60.0051 57.8555 55.7829 50 57.8555 51.8578 60.0051 57.8555 
62.2346 60.0051 55.7829 51.8578 55.7829 51.8578 60.0051 57.8555 62.2346 
57.8555 60.0051 53.7845 53.7845 48.2088 53.7845 46.4818 60.0051 55.7829 
53.7845 51.8578 51.8578 50 51.8578 46.4818 53.7845 48.2088 57.8555 
53.7845 55.7829 53.7845 51.8578 50 51.8578 48.2088 50 48.2088 
57.8555 53.7845 50 48.2088 48.2088 44.8166 48.2088 44.8166 50 
48.2088 50 48.2088 46.4818 43.2111 55.7829 51.8578 53.7845 50 
46.4818 44.8166 44.8166 41.6631 55.7829 53.7845 57.8555 55.7829 50 
48.2088 51.8578 50 43.2111 41.6631 
