# vtk DataFile Version 4.1
vtk output
ASCII
DATASET POLYDATA
POINTS 126 float
100 9850 50 3150 9350 50 2853.97 9610.54 50 
3803.91 9615.06 50 6350 9150 50 6050 11650 50 
4541.24 9305.17 50 5909.79 11375.7 50 7250 11450 50 
6202.88 9098.42 50 7350 8750 50 6051.28 11614.2 50 
6650 12550 50 6774.7 11666.3 50 7850 12350 50 
7087.15 8665.37 50 8050 7950 50 6662.51 12371.7 50 
7704.14 12391 50 8450 13050 50 6805.82 7528.09 50 
7348.55 11931.7 50 8550 11750 50 7993.89 8150.92 50 
8950 7850 50 8050 14050 50 8241.28 12710.6 50 
9250 12650 50 9050 6750 50 7888.53 6266.49 50 
8750 5950 50 7033.48 13017.1 50 8840.04 7806.29 50 
8654.86 12797.8 50 9250 13450 50 7855.04 13949 50 
7850 14850 50 8034.57 14054.5 50 8650 14450 50 
8513.65 11793.6 50 10050 12250 50 9058.48 13075.4 50 
10050 13150 50 8350 5250 50 9212.62 7596.4 50 
9950 8050 50 8698.33 6023.28 50 9550 5850 50 
8989.3 6793.54 50 9950 6550 50 8330.63 5503.19 50 
9150 5150 50 10450 7250 50 7992.02 14657.6 50 
8350 15450 50 7550 15550 50 9959.91 12280.4 50 
10650 12750 50 9823.05 7812.56 50 10550 7850 50 
9923.4 6620.63 50 10550 6550 50 9225.2 5737.17 50 
9850 5150 50 8394.57 5315.38 50 8750 4650 50 
9900.71 13238.1 50 10650 13550 50 8906.25 5123.28 50 
9450 4550 50 10023 12259.1 50 10750 11950 50 
10348.9 7221.12 50 11050 6950 50 10542 12506.2 50 
11250 12550 50 10670.3 12676.1 50 11250 13250 50 
10455.2 7779.02 50 11250 7650 50 9508.34 5787.48 50 
10250 5750 50 9734.06 5169.9 50 10150 4550 50 
9950 5627.99 50 10450 5250 50 10937.5 7114.45 50 
11650 7150 50 11163.4 12620 50 10467.4 6494.25 50 
11150 6250 50 11035.7 6357.95 50 11650 6550 50 
9332 4565.45 50 10123.6 4769.96 50 10650 4450 50 
10713.4 12048.9 50 11450 11950 50 11163.7 7719.29 50 
11850 7750 50 10250 3950 50 10606.2 13534.2 50 
11350 13850 50 11572.7 12853.5 50 11950 13450 50 
11323.3 12073.6 50 12050 12250 50 11590 7110.62 50 
12250 7050 50 12350 12750 50 11770.4 7684.17 50 
12350 7550 50 11544.3 6417.18 50 12150 6350 50 
11871.8 13179.5 50 12550 13350 50 12098 6962.25 50 
12650 6650 50 7946.17 14785.6 50 7950 14950 50 
9725.36 4385.42 50 9950 4450 50 12296.3 6876.23 50 
12450 6950 50 12104.4 12914.3 50 12450 13050 50 

LINES 125 375
2 2 1 
2 0 2 
2 2 3 
2 9 4 
2 11 5 
2 3 6 
2 3 7 
2 13 8 
2 6 9 
2 15 10 
2 7 11 
2 17 12 
2 7 13 
2 18 14 
2 9 15 
2 23 16 
2 11 17 
2 21 18 
2 26 19 
2 6 20 
2 13 21 
2 39 22 
2 15 23 
2 32 24 
2 37 25 
2 18 26 
2 33 27 
2 48 28 
2 20 29 
2 46 30 
2 17 31 
2 23 32 
2 26 33 
2 41 34 
2 31 35 
2 118 36 
2 35 37 
2 37 38 
2 21 39 
2 70 40 
2 33 41 
2 66 42 
2 64 43 
2 32 44 
2 58 45 
2 29 46 
2 80 47 
2 20 48 
2 60 49 
2 29 50 
2 68 51 
2 72 52 
2 35 53 
2 53 54 
2 31 55 
2 39 56 
2 76 57 
2 44 58 
2 78 59 
2 48 60 
2 89 61 
2 46 62 
2 82 63 
2 50 64 
2 64 65 
2 41 66 
2 101 67 
2 50 68 
2 93 69 
2 56 70 
2 96 71 
2 44 72 
2 86 73 
2 56 74 
2 88 75 
2 74 76 
2 76 77 
2 58 78 
2 98 79 
2 62 80 
2 84 81 
2 62 82 
2 94 83 
2 80 84 
2 84 85 
2 72 86 
2 107 87 
2 74 88 
2 60 89 
2 91 90 
2 89 91 
2 112 92 
2 68 93 
2 82 94 
2 94 95 
2 70 96 
2 105 97 
2 78 98 
2 110 99 
2 120 100 
2 66 101 
2 101 102 
2 88 103 
2 114 104 
2 96 105 
2 105 106 
2 86 107 
2 116 108 
2 124 109 
2 98 110 
2 110 111 
2 91 112 
2 112 113 
2 103 114 
2 114 115 
2 107 116 
2 122 117 
2 53 118 
2 118 119 
2 93 120 
2 120 121 
2 116 122 
2 122 123 
2 103 124 
2 124 125 

CELL_DATA 125
SCALARS radius float
LOOKUP_TABLE default
96.4176 100 96.4176 86.4222 86.4222 92.9635 92.9635 86.4222 89.6332 
83.3262 89.6332 83.3262 89.6332 80.3411 86.4222 80.3411 86.4222 83.3262 
77.463 89.6332 86.4222 80.3411 83.3262 77.463 74.6879 80.3411 74.6879 
83.3262 86.4222 80.3411 83.3262 80.3411 77.463 72.0123 80.3411 72.0123 
77.463 74.6879 83.3262 74.6879 74.6879 69.4326 77.463 77.463 72.0123 
83.3262 74.6879 86.4222 80.3411 83.3262 77.463 72.0123 77.463 74.6879 
80.3411 80.3411 72.0123 74.6879 69.4326 83.3262 77.463 80.3411 74.6879 
80.3411 77.463 72.0123 66.9452 80.3411 74.6879 77.463 72.0123 74.6879 
69.4326 77.463 72.0123 74.6879 72.0123 72.0123 66.9452 77.463 72.0123 
77.463 72.0123 74.6879 72.0123 72.0123 66.9452 74.6879 80.3411 74.6879 
77.463 72.0123 77.463 74.6879 72.0123 74.6879 69.4326 69.4326 64.547 
72.0123 69.4326 66.9452 72.0123 66.9452 72.0123 69.4326 69.4326 64.547 
66.9452 66.9452 64.547 74.6879 72.0123 69.4326 66.9452 66.9452 62.2346 
74.6879 72.0123 74.6879 72.0123 64.547 62.2346 69.4326 66.9452 
