# vtk DataFile Version 4.1
vtk output
ASCII
DATASET POLYDATA
POINTS 114 float
100 9850 50 3150 10650 50 2841.09 10390.5 50 
3825.72 10357.4 50 4928.29 10393 50 7050 10950 50 
6950 7550 50 6527.94 7996.37 50 7650 8250 50 
6886.67 11027 50 6928.28 7650.23 50 7453.18 8036.55 50 
6943.48 7580.07 50 7150 6450 50 8750 6950 50 
7256.33 12562.6 50 7302.87 6880.43 50 8050 6050 50 
8358.53 6968.75 50 8850 6150 50 8550 14250 50 
7150 14550 50 8237.68 12175.5 50 9250 11750 50 
8693.67 6916.06 50 9550 6650 50 8989.39 12563.5 50 
9850 12350 50 8010.69 6053.3 50 8550 5350 50 
9045.13 7746.13 50 9750 8150 50 10150 7250 50 
9535.94 12525.8 50 10250 12950 50 8849.41 6393.5 50 
9550 5850 50 7182.57 14462.7 50 8545.42 5491.06 50 
9150 5050 50 7850 15650 50 9499.97 6707.14 50 
10350 6550 50 9796.08 12341.5 50 10250 11850 50 
9788.26 7508.59 50 10550 7850 50 9955.83 12663.7 50 
10750 12450 50 10121.4 7326.51 50 10850 7150 50 
9353.77 5871.4 50 9850 5150 50 10350 13650 50 
10373 12643 50 10950 13050 50 10446.2 7684.75 50 
11050 7650 50 10314 6587.71 50 9048.17 5058.42 50 
9650 4450 50 9532.22 5834.63 50 10250 5650 50 
10725.7 12786.4 50 11450 12650 50 9842.9 5183.14 50 
10250 4650 50 10957 7603.38 50 11550 7250 50 
10674 12447.5 50 11150 11950 50 8778.02 5165.89 50 
8950 4250 50 10315.8 13569.7 50 11050 13750 50 
10937.6 12978.7 50 11550 13350 50 11450 6350 50 
11022.1 7636.01 50 11550 7950 50 9381.27 4525.37 50 
9550 3850 50 11386.2 12693.7 50 12050 12650 50 
10132.3 5597.08 50 10650 5250 50 10140.1 4695.95 50 
10250 3950 50 11067.4 12138.1 50 11750 12050 50 
11412.4 7415.68 50 12050 7550 50 11552.8 7305.75 50 
12150 6950 50 10217 4663.78 50 10850 4550 50 
11473 13173.5 50 12150 13250 50 10337.2 4308.05 50 
10750 3950 50 11736.6 13274.8 50 12050 13750 50 
11437.7 6371.94 50 12050 6250 50 11952.5 12723.5 50 
12650 12850 50 7557.63 14884.1 50 7950 14950 50 
9967.99 4821.96 50 9950 4450 50 12102.8 7053.17 50 
12450 6950 50 12307.9 12887.2 50 12450 13050 50 

LINES 113 339
2 2 1 
2 0 2 
2 2 3 
2 3 4 
2 9 5 
2 12 6 
2 3 7 
2 11 8 
2 4 9 
2 7 10 
2 7 11 
2 10 12 
2 16 13 
2 24 14 
2 4 15 
2 12 16 
2 28 17 
2 10 18 
2 35 19 
2 15 20 
2 37 21 
2 9 22 
2 22 23 
2 18 24 
2 41 25 
2 22 26 
2 43 27 
2 16 28 
2 38 29 
2 11 30 
2 30 31 
2 49 32 
2 26 33 
2 47 34 
2 18 35 
2 61 36 
2 15 37 
2 28 38 
2 59 39 
2 106 40 
2 24 41 
2 58 42 
2 33 43 
2 43 44 
2 30 45 
2 56 46 
2 33 47 
2 69 48 
2 45 49 
2 49 50 
2 35 51 
2 65 52 
2 73 53 
2 47 54 
2 75 55 
2 45 56 
2 78 57 
2 41 58 
2 71 59 
2 80 60 
2 51 61 
2 84 62 
2 54 63 
2 82 64 
2 51 65 
2 94 66 
2 56 67 
2 92 68 
2 54 69 
2 88 70 
2 38 71 
2 71 72 
2 26 73 
2 73 74 
2 63 75 
2 96 76 
2 102 77 
2 67 78 
2 78 79 
2 59 80 
2 80 81 
2 63 82 
2 104 83 
2 61 84 
2 84 85 
2 108 86 
2 98 87 
2 69 88 
2 88 89 
2 67 90 
2 90 91 
2 90 92 
2 110 93 
2 86 94 
2 94 95 
2 75 96 
2 100 97 
2 86 98 
2 98 99 
2 96 100 
2 100 101 
2 58 102 
2 102 103 
2 82 104 
2 112 105 
2 37 106 
2 106 107 
2 65 108 
2 108 109 
2 92 110 
2 110 111 
2 104 112 
2 112 113 

CELL_DATA 113
SCALARS radius float
LOOKUP_TABLE default
96.4176 100 96.4176 92.9635 86.4222 83.3262 92.9635 86.4222 89.6332 
89.6332 89.6332 86.4222 80.3411 80.3411 89.6332 83.3262 77.463 86.4222 
80.3411 86.4222 83.3262 86.4222 83.3262 83.3262 77.463 83.3262 74.6879 
80.3411 74.6879 86.4222 83.3262 77.463 80.3411 74.6879 83.3262 74.6879 
86.4222 77.463 69.4326 80.3411 80.3411 74.6879 77.463 74.6879 83.3262 
77.463 77.463 69.4326 80.3411 77.463 80.3411 74.6879 77.463 74.6879 
66.9452 80.3411 72.0123 77.463 72.0123 66.9452 77.463 72.0123 72.0123 
66.9452 77.463 66.9452 77.463 69.4326 72.0123 66.9452 74.6879 72.0123 
80.3411 77.463 69.4326 64.547 72.0123 74.6879 72.0123 69.4326 66.9452 
69.4326 64.547 74.6879 72.0123 72.0123 66.9452 69.4326 66.9452 74.6879 
72.0123 72.0123 66.9452 69.4326 66.9452 66.9452 62.2346 69.4326 66.9452 
64.547 62.2346 74.6879 72.0123 66.9452 62.2346 83.3262 80.3411 74.6879 
72.0123 69.4326 66.9452 64.547 62.2346 
