# vtk DataFile Version 4.1
vtk output
ASCII
DATASET POLYDATA
POINTS 118 float
100 9850 50 3050 10550 50 2833.92 10257.7 50 
3569.8 10085.9 50 4771.18 10468.6 50 6550 11250 50 
5245.21 9178.86 50 7050 9150 50 6461.39 11228.4 50 
7150 12950 50 6840.21 9040.73 50 8450 7650 50 
7029.41 12929 50 7536.86 7275.34 50 7775.54 12174.8 50 
8650 11850 50 8445.57 7752.33 50 9150 7250 50 
7541.44 13567.3 50 7650 14450 50 8550 5850 50 
8550 14050 50 8469.94 12033.7 50 9550 12350 50 
8241.01 8097.4 50 9250 8150 50 9350 6550 50 
9650 13150 50 9095.12 8021.17 50 9850 7750 50 
7704.69 14281.7 50 8250 14950 50 8945.71 6572.21 50 
9350 5750 50 9120.23 7366.93 50 9530.78 12300.3 50 
10250 12450 50 7666.41 14399.5 50 7350 15150 50 
8170.53 5969.1 50 8350 5150 50 9609.96 13072.6 50 
10350 13150 50 9836.83 7787.08 50 10450 7650 50 
8370.83 5474.21 50 9050 4950 50 7973.52 14760.6 50 
7950 15650 50 8195.23 14953.7 50 8550 15450 50 
9364.97 5807.33 50 9750 5250 50 10750 6850 50 
10130.3 12334.1 50 10850 12250 50 9637.99 13126.8 50 
10150 13750 50 9288.16 6517.55 50 10150 6250 50 
10281.2 13181.2 50 10950 13350 50 10400.7 7648.83 50 
11150 7450 50 8999 4935.81 50 9450 4450 50 
10610.5 12370.2 50 11350 12850 50 9668.44 5503.65 50 
10350 5350 50 10685.3 6905.06 50 11350 6850 50 
9771.88 5315.65 50 10250 4650 50 10685.5 7573.28 50 
11150 8050 50 10831 12287.7 50 11450 12150 50 
9445.68 4493.46 50 9950 4050 50 10932 13324 50 
11650 13450 50 11071.4 7521.15 50 11750 7650 50 
11222.2 12602.1 50 11950 12650 50 11377.6 7489.98 50 
11950 7050 50 11115 6736.43 50 11650 6350 50 
10247.3 4697.76 50 10650 4250 50 11391.9 12194.1 50 
11950 12150 50 9596.98 4360.42 50 9450 3750 50 
10217.4 5299.46 50 10850 4950 50 11684.7 12767 50 
12250 13150 50 9896.68 4063.81 50 10250 3550 50 
11714.1 7330.39 50 12350 7450 50 11546.7 6513.25 50 
12250 6550 50 11504.2 13521.7 50 11950 13850 50 
11919.9 12700.3 50 12550 12650 50 7890.45 14742.1 50 
7950 14950 50 9551.59 4400.33 50 9950 4450 50 
11937.4 7134.14 50 12450 6950 50 12170.1 12996.9 50 
12450 13050 50 
LINES 117 351
2 2 1 
2 0 2 
2 2 3 
2 3 4 
2 8 5 
2 3 6 
2 10 7 
2 4 8 
2 12 9 
2 6 10 
2 16 11 
2 4 12 
2 6 13 
2 8 14 
2 22 15 
2 24 16 
2 34 17 
2 12 18 
2 37 19 
2 39 20 
2 18 21 
2 14 22 
2 35 23 
2 10 24 
2 28 25 
2 58 26 
2 56 27 
2 24 28 
2 43 29 
2 18 30 
2 49 31 
2 13 32 
2 51 33 
2 16 34 
2 22 35 
2 54 36 
2 30 37 
2 37 38 
2 13 39 
2 45 40 
2 14 41 
2 60 42 
2 28 43 
2 62 44 
2 39 45 
2 64 46 
2 110 47 
2 47 48 
2 47 49 
2 49 50 
2 32 51 
2 72 52 
2 70 53 
2 35 54 
2 76 55 
2 41 56 
2 56 57 
2 32 58 
2 58 59 
2 41 60 
2 80 61 
2 43 62 
2 82 63 
2 45 64 
2 78 65 
2 54 66 
2 84 67 
2 51 68 
2 96 69 
2 34 70 
2 88 71 
2 68 72 
2 90 73 
2 62 74 
2 74 75 
2 66 76 
2 92 77 
2 64 78 
2 100 79 
2 60 80 
2 106 81 
2 74 82 
2 86 83 
2 66 84 
2 108 85 
2 82 86 
2 114 87 
2 70 88 
2 104 89 
2 72 90 
2 90 91 
2 76 92 
2 92 93 
2 112 94 
2 94 95 
2 68 96 
2 96 97 
2 84 98 
2 116 99 
2 94 100 
2 100 101 
2 86 102 
2 102 103 
2 88 104 
2 104 105 
2 80 106 
2 106 107 
2 98 108 
2 108 109 
2 30 110 
2 110 111 
2 78 112 
2 112 113 
2 102 114 
2 114 115 
2 98 116 
2 116 117 

CELL_DATA 117
SCALARS radius float
LOOKUP_TABLE default
96.4176 100 96.4176 92.9635 86.4222 92.9635 86.4222 89.6332 86.4222 
89.6332 80.3411 89.6332 89.6332 86.4222 80.3411 83.3262 77.463 86.4222 
77.463 83.3262 83.3262 83.3262 77.463 86.4222 80.3411 80.3411 77.463 
83.3262 77.463 83.3262 72.0123 86.4222 80.3411 80.3411 80.3411 74.6879 
80.3411 77.463 86.4222 80.3411 83.3262 77.463 80.3411 74.6879 83.3262 
77.463 77.463 74.6879 74.6879 72.0123 83.3262 74.6879 74.6879 77.463 
69.4326 80.3411 77.463 83.3262 80.3411 80.3411 74.6879 77.463 69.4326 
80.3411 74.6879 74.6879 69.4326 80.3411 74.6879 77.463 72.0123 77.463 
72.0123 74.6879 72.0123 72.0123 66.9452 77.463 66.9452 77.463 72.0123 
72.0123 66.9452 72.0123 64.547 69.4326 62.2346 74.6879 69.4326 74.6879 
72.0123 69.4326 66.9452 72.0123 69.4326 77.463 74.6879 69.4326 64.547 
69.4326 66.9452 66.9452 64.547 72.0123 69.4326 74.6879 72.0123 66.9452 
64.547 80.3411 77.463 74.6879 72.0123 64.547 62.2346 66.9452 64.547 

