# vtk DataFile Version 4.1
vtk output
ASCII
DATASET POLYDATA
POINTS 124 float
100 9850 50 3150 10650 50 2972.35 10435.5 50 
3800.73 9979.04 50 5360.32 10374.2 50 6250 11750 50 
7150 9050 50 6375.89 9051.34 50 7050 7750 50 
6222.99 11750 50 6607.23 12163 50 7650 12450 50 
7064.51 7833.39 50 7550 7050 50 6920.37 8387.43 50 
7450 13350 50 7623.73 12465.1 50 8450 12750 50 
7568.96 7370.03 50 8450 6850 50 8950 7550 50 
7436.64 13165.4 50 8350 13850 50 9150 12250 50 
8057.15 6947.61 50 7137.63 12877.1 50 6850 13950 50 
8315.49 12804 50 9150 13350 50 7071.68 13572.6 50 
7550 14550 50 8410.5 6828.16 50 9150 6450 50 
8925.45 7537.56 50 9650 7150 50 9102.35 12249.3 50 
8542.74 7841.22 50 9450 8150 50 8012.66 13800.2 50 
8450 14650 50 8428.86 6265.04 50 9050 5650 50 
7547.2 14483.4 50 7950 15150 50 8813.15 11927.7 50 
9650 11750 50 9303.04 8010.63 50 9416.31 11975.3 50 
8350 5150 50 9950 13550 50 9614.14 7190.02 50 
10350 6850 50 10000.5 12308.1 50 10550 12850 50 
8997.54 5868.02 50 9750 5550 50 8448.58 5462.09 50 
8950 4850 50 7311.16 14258 50 7050 15150 50 
8366.05 14602.1 50 8650 15450 50 10750 7450 50 
7315.36 14889.8 50 7550 15750 50 9412.44 5602.75 50 
9650 4950 50 9979.51 13182.9 50 10650 13650 50 
10310.5 6930.81 50 11050 6750 50 10455.7 12646.3 50 
11250 12750 50 10305.3 7644.99 50 10850 8050 50 
9715.86 5526.46 50 10350 5250 50 10732.5 7515.59 50 
11450 7350 50 8901.55 4877.87 50 9350 4250 50 
9694.98 5099.1 50 10150 4550 50 10577.8 13435.1 50 
11350 13550 50 11135.8 12800.8 50 10786.9 7926.65 50 
11450 7950 50 11009.4 6807.86 50 11750 6750 50 
9338.62 4389.15 50 9950 3850 50 10658.6 6778.46 50 
11050 6150 50 11388.4 7402.99 50 12050 7350 50 
10136 4741.64 50 10750 4450 50 12050 12450 50 
12150 13350 50 10359.7 4538.07 50 10550 3850 50 
11903 12500.6 50 12450 12850 50 11030.2 6451.66 50 
11650 6150 50 11728 6729.41 50 12350 6650 50 
11405.8 7942.53 50 12050 7950 50 11978.3 7422.96 50 
12550 7550 50 12213.2 6765.76 50 12750 6950 50 
12110 13278.1 50 12750 13350 50 7889.58 14910 50 
7950 14950 50 9872.23 4831.56 50 9950 4450 50 
12425.4 6881.83 50 12450 6950 50 12307.8 12871.2 50 
12450 13050 50 
LINES 123 369
2 2 1 
2 0 2 
2 2 3 
2 3 4 
2 9 5 
2 7 6 
2 3 7 
2 12 8 
2 4 9 
2 9 10 
2 16 11 
2 14 12 
2 18 13 
2 7 14 
2 21 15 
2 10 16 
2 27 17 
2 12 18 
2 31 19 
2 33 20 
2 25 21 
2 38 22 
2 35 23 
2 18 24 
2 10 25 
2 29 26 
2 16 27 
2 27 28 
2 25 29 
2 42 30 
2 24 31 
2 31 32 
2 36 33 
2 50 34 
2 44 35 
2 14 36 
2 46 37 
2 21 38 
2 60 39 
2 24 40 
2 54 41 
2 58 42 
2 116 43 
2 4 44 
2 47 45 
2 36 46 
2 44 47 
2 56 48 
2 67 49 
2 33 50 
2 69 51 
2 47 52 
2 71 53 
2 40 54 
2 75 55 
2 40 56 
2 79 57 
2 29 58 
2 63 59 
2 38 60 
2 60 61 
2 77 62 
2 58 63 
2 63 64 
2 54 65 
2 81 66 
2 35 67 
2 83 68 
2 50 69 
2 88 70 
2 52 71 
2 85 72 
2 46 73 
2 86 74 
2 65 75 
2 75 76 
2 73 77 
2 94 78 
2 56 79 
2 90 80 
2 65 81 
2 96 82 
2 67 83 
2 83 84 
2 71 85 
2 73 86 
2 108 87 
2 92 88 
2 106 89 
2 79 90 
2 90 91 
2 69 92 
2 104 93 
2 77 94 
2 110 95 
2 118 96 
2 100 97 
2 102 98 
2 114 99 
2 96 100 
2 100 101 
2 52 102 
2 122 103 
2 92 104 
2 104 105 
2 88 106 
2 112 107 
2 86 108 
2 108 109 
2 94 110 
2 110 111 
2 106 112 
2 120 113 
2 85 114 
2 114 115 
2 42 116 
2 116 117 
2 81 118 
2 118 119 
2 112 120 
2 120 121 
2 102 122 
2 122 123 

CELL_DATA 123
SCALARS radius float
LOOKUP_TABLE default
96.4176 100 96.4176 92.9635 86.4222 89.6332 92.9635 83.3262 89.6332 
86.4222 80.3411 86.4222 80.3411 89.6332 77.463 83.3262 77.463 83.3262 
74.6879 80.3411 80.3411 74.6879 83.3262 80.3411 83.3262 77.463 80.3411 
77.463 80.3411 72.0123 77.463 74.6879 83.3262 77.463 86.4222 86.4222 
80.3411 77.463 72.0123 77.463 72.0123 74.6879 69.4326 89.6332 83.3262 
83.3262 86.4222 72.0123 80.3411 80.3411 74.6879 83.3262 77.463 74.6879 
66.9452 74.6879 69.4326 77.463 72.0123 74.6879 72.0123 74.6879 74.6879 
72.0123 72.0123 66.9452 83.3262 77.463 77.463 69.4326 80.3411 74.6879 
80.3411 74.6879 69.4326 66.9452 77.463 72.0123 72.0123 66.9452 69.4326 
62.2346 80.3411 77.463 77.463 77.463 72.0123 72.0123 66.9452 69.4326 
66.9452 74.6879 69.4326 74.6879 69.4326 64.547 60.0051 77.463 72.0123 
62.2346 60.0051 80.3411 74.6879 72.0123 69.4326 69.4326 64.547 74.6879 
72.0123 72.0123 69.4326 66.9452 62.2346 74.6879 72.0123 72.0123 69.4326 
66.9452 64.547 64.547 62.2346 77.463 74.6879 
