# vtk DataFile Version 4.1
vtk output
ASCII
DATASET POLYDATA
POINTS 116 float
100 9850 50 2850 9150 50 2687.76 9399.82 50 
4458.41 9794.61 50 6003.66 9109.6 50 7750 8250 50 
6542.38 11888.2 50 7950 12350 50 7550 13450 50 
7696.81 8325.16 50 7740.48 12375.9 50 8450 13250 50 
7672.86 12251.2 50 8850 12250 50 7350 6250 50 
7434.57 6769.79 50 8250 6150 50 7566.02 13394.1 50 
8250 14050 50 9050 6850 50 7212.76 13185.5 50 
7150 14250 50 8424.97 12474.6 50 9350 13050 50 
8237.93 7978.9 50 8242.29 6295.32 50 8950 5950 50 
8928.21 7767.87 50 9750 7250 50 7376.13 13907.1 50 
7850 14850 50 8793.24 12346.6 50 9750 12250 50 
8247.69 6193.6 50 8550 5350 50 9203.99 12791.8 50 
8143.13 14036.1 50 8650 14750 50 9043.43 6991.46 50 
9750 6450 50 10050 8050 50 9343.21 13023 50 
9750 13650 50 8891.53 5920.5 50 9550 5450 50 
9869.44 7932.69 50 10550 7550 50 7479.51 14333.9 50 
9732 12285.7 50 10550 12250 50 9683.03 7247.72 50 
10450 6650 50 8561.44 5384.46 50 10094 12849.5 50 
10850 12850 50 7650 15850 50 9386.21 5479.04 50 
9650 4750 50 10472.2 7560.46 50 11050 7150 50 
9579.37 6470.58 50 10150 5750 50 9980.87 5764.62 50 
10250 5150 50 10687.6 12737.8 50 11350 12450 50 
9250 4250 50 10197.5 7848.61 50 11050 8050 50 
10433.9 6709.45 50 11050 6350 50 11054.2 12666.8 50 
11650 12950 50 10855.1 6560.56 50 11550 6750 50 
9649.59 4815.29 50 9950 4150 50 10917.2 7901.56 50 
11550 7750 50 10219.9 5178.68 50 10450 4550 50 
11421.1 7720.92 50 11850 7250 50 10474.8 12180.3 50 
11450 11950 50 11299.2 12161.2 50 11950 12250 50 
9212.29 4290.17 50 9550 3750 50 11850 13650 50 
11495.6 6689.38 50 12150 6750 50 9969.84 4304.12 50 
10450 3750 50 11830.3 12296 50 10488.4 4639.18 50 
10850 4150 50 11667 7569.84 50 12350 7550 50 
11791.8 13561.7 50 12350 13550 50 12106.1 7419.52 50 
12650 7050 50 11744.3 6712.42 50 12150 6150 50 
12850 13150 50 12078 6694.85 50 12650 6450 50 
7839.31 14813.1 50 7950 14950 50 9907.91 4482.91 50 
9950 4450 50 12396.6 7090.08 50 12450 6950 50 
12417 12951.9 50 12450 13050 50 
LINES 115 345
2 2 1 
2 0 2 
2 2 3 
2 3 4 
2 9 5 
2 3 6 
2 10 7 
2 17 8 
2 4 9 
2 12 10 
2 10 11 
2 6 12 
2 31 13 
2 15 14 
2 4 15 
2 33 16 
2 20 17 
2 36 18 
2 38 19 
2 6 20 
2 29 21 
2 12 22 
2 41 23 
2 9 24 
2 15 25 
2 43 26 
2 24 27 
2 50 28 
2 20 29 
2 108 30 
2 22 31 
2 48 32 
2 25 33 
2 52 34 
2 22 35 
2 17 36 
2 36 37 
2 24 38 
2 60 39 
2 45 40 
2 35 41 
2 41 42 
2 25 43 
2 56 44 
2 27 45 
2 58 46 
2 29 47 
2 31 48 
2 83 49 
2 27 50 
2 69 51 
2 33 52 
2 35 53 
2 64 54 
2 47 55 
2 43 56 
2 75 57 
2 67 58 
2 58 59 
2 38 60 
2 62 61 
2 60 62 
2 79 63 
2 53 64 
2 71 65 
2 87 66 
2 45 67 
2 77 68 
2 50 69 
2 73 70 
2 64 71 
2 71 72 
2 69 73 
2 90 74 
2 56 75 
2 92 76 
2 67 77 
2 81 78 
2 62 79 
2 95 80 
2 77 81 
2 97 82 
2 48 83 
2 85 84 
2 83 85 
2 94 86 
2 52 87 
2 87 88 
2 99 89 
2 73 90 
2 106 91 
2 110 92 
2 92 93 
2 85 94 
2 79 95 
2 95 96 
2 81 97 
2 101 98 
2 53 99 
2 99 100 
2 97 101 
2 112 102 
2 90 103 
2 103 104 
2 114 105 
2 103 106 
2 106 107 
2 47 108 
2 108 109 
2 75 110 
2 110 111 
2 101 112 
2 112 113 
2 94 114 
2 114 115 

CELL_DATA 115
SCALARS radius float
LOOKUP_TABLE default
96.4176 100 96.4176 92.9635 86.4222 92.9635 83.3262 83.3262 89.6332 
86.4222 83.3262 89.6332 80.3411 86.4222 89.6332 80.3411 86.4222 80.3411 
80.3411 89.6332 83.3262 86.4222 77.463 86.4222 86.4222 80.3411 83.3262 
77.463 86.4222 77.463 83.3262 77.463 83.3262 77.463 83.3262 83.3262 
80.3411 83.3262 77.463 77.463 80.3411 77.463 83.3262 77.463 80.3411 
72.0123 83.3262 80.3411 74.6879 80.3411 74.6879 80.3411 80.3411 74.6879 
80.3411 80.3411 74.6879 74.6879 72.0123 80.3411 74.6879 77.463 72.0123 
77.463 72.0123 74.6879 77.463 72.0123 77.463 72.0123 74.6879 72.0123 
74.6879 69.4326 77.463 69.4326 74.6879 69.4326 74.6879 69.4326 72.0123 
66.9452 77.463 72.0123 74.6879 69.4326 77.463 74.6879 74.6879 72.0123 
64.547 72.0123 69.4326 72.0123 72.0123 69.4326 69.4326 64.547 77.463 
74.6879 66.9452 62.2346 69.4326 66.9452 66.9452 66.9452 64.547 80.3411 
77.463 74.6879 72.0123 64.547 62.2346 69.4326 66.9452 
