# vtk DataFile Version 4.1
vtk output
ASCII
DATASET POLYDATA
POINTS 116 float
100 9850 50 3250 9850 50 2811.98 10187.8 50 
3229.65 9883.26 50 5398.72 8761.19 50 6750 8850 50 
6124.55 11112.8 50 6150 7650 50 6497.15 8714.02 50 
7750 11950 50 6171.85 7867.34 50 6863.22 12216 50 
7744.33 11854.7 50 6750 13450 50 7650 13950 50 
7734.79 7675.78 50 8388.47 12255.3 50 8950 13050 50 
8750 6550 50 8426.7 7650.38 50 9250 7350 50 
7615.5 13435.4 50 8550 13850 50 7950 5750 50 
7903.97 6074.76 50 8750 5750 50 6802.95 13417.2 50 
6850 14250 50 7665.92 13895.9 50 7850 14850 50 
9206.62 12362.6 50 10050 12650 50 9750 8050 50 
8698.98 6890.02 50 9403.11 7778.88 50 10150 7450 50 
8325.68 13850.1 50 8750 14650 50 8742.95 5771.94 50 
9450 5550 50 7986.21 5805.65 50 8350 5150 50 
9950 11850 50 6890.94 14207.5 50 7931.1 14712.7 50 
8350 15450 50 9864.29 12670.4 50 10350 13350 50 
10024.4 12634 50 10650 12450 50 9569.67 6686.81 50 
10450 6650 50 8349.78 5285.03 50 9050 4850 50 
7550 15650 50 10138.7 7472.93 50 10750 7250 50 
10373 12613.9 50 10950 12950 50 9301.1 5525.92 50 
9750 4950 50 10050 5950 50 9905.76 12014.2 50 
10650 11850 50 10362.6 13188.5 50 10950 13550 50 
10434.7 6658.83 50 11150 6650 50 9998.29 5987.13 50 
10350 5350 50 10628.9 12506.5 50 11350 12350 50 
10571.2 7401.86 50 11350 7650 50 8853.91 4856.01 50 
9350 4250 50 10887.2 12815.5 50 11550 12950 50 
9738.44 5124.37 50 10350 4750 50 10994.8 7439.45 50 
11650 7050 50 9331.25 4387.92 50 9850 4050 50 
10883 13405.4 50 11550 13550 50 11061.1 6596.83 50 
11650 6450 50 11287.2 12428.1 50 9810.5 4185.17 50 
10450 4050 50 11505.9 12935 50 12150 13050 50 
11338.1 7607.15 50 11950 7750 50 11555.9 7233.78 50 
12250 7150 50 9338.94 4261.37 50 9350 3750 50 
10322.3 4841.8 50 10950 4650 50 11582.4 6536.73 50 
12250 6550 50 12550 12650 50 12083.9 13097.2 50 
12650 13350 50 12167.9 7092.81 50 12750 6850 50 
7905.36 14794 50 7950 14950 50 9619.52 4356.64 50 
9950 4450 50 12430.7 6969.13 50 12450 6950 50 
12288 13158.8 50 12450 13050 50 
LINES 115 345
2 3 1 
2 0 2 
2 2 3 
2 3 4 
2 8 5 
2 2 6 
2 10 7 
2 4 8 
2 12 9 
2 4 10 
2 6 11 
2 6 12 
2 26 13 
2 28 14 
2 8 15 
2 12 16 
2 16 17 
2 33 18 
2 15 19 
2 19 20 
2 11 21 
2 36 22 
2 40 23 
2 10 24 
2 38 25 
2 11 26 
2 43 27 
2 21 28 
2 108 29 
2 16 30 
2 48 31 
2 34 32 
2 15 33 
2 19 34 
2 55 35 
2 21 36 
2 36 37 
2 24 38 
2 59 39 
2 24 40 
2 52 41 
2 62 42 
2 26 43 
2 28 44 
2 44 45 
2 30 46 
2 64 47 
2 46 48 
2 70 49 
2 33 50 
2 66 51 
2 40 52 
2 74 53 
2 43 54 
2 34 55 
2 72 56 
2 48 57 
2 76 58 
2 38 59 
2 78 60 
2 68 61 
2 30 62 
2 62 63 
2 46 64 
2 84 65 
2 50 66 
2 86 67 
2 50 68 
2 68 69 
2 57 70 
2 88 71 
2 55 72 
2 93 73 
2 52 74 
2 97 75 
2 57 76 
2 91 77 
2 59 78 
2 99 79 
2 72 80 
2 95 81 
2 74 82 
2 89 83 
2 64 84 
2 84 85 
2 66 86 
2 101 87 
2 70 88 
2 110 89 
2 89 90 
2 76 91 
2 104 92 
2 80 93 
2 93 94 
2 80 95 
2 106 96 
2 82 97 
2 97 98 
2 78 99 
2 99 100 
2 86 101 
2 101 102 
2 88 103 
2 91 104 
2 114 105 
2 95 106 
2 112 107 
2 44 108 
2 108 109 
2 82 110 
2 110 111 
2 106 112 
2 112 113 
2 104 114 
2 114 115 

CELL_DATA 115
SCALARS radius float
LOOKUP_TABLE default
92.9635 100 96.4176 92.9635 86.4222 96.4176 86.4222 89.6332 89.6332 
89.6332 92.9635 92.9635 86.4222 83.3262 86.4222 89.6332 86.4222 80.3411 
83.3262 80.3411 89.6332 83.3262 80.3411 86.4222 80.3411 89.6332 83.3262 
86.4222 77.463 86.4222 77.463 77.463 83.3262 80.3411 74.6879 86.4222 
83.3262 83.3262 77.463 83.3262 77.463 80.3411 86.4222 83.3262 80.3411 
83.3262 77.463 80.3411 72.0123 80.3411 74.6879 80.3411 74.6879 83.3262 
77.463 72.0123 77.463 72.0123 80.3411 74.6879 74.6879 83.3262 80.3411 
80.3411 74.6879 77.463 72.0123 77.463 74.6879 74.6879 69.4326 74.6879 
66.9452 77.463 69.4326 74.6879 69.4326 77.463 72.0123 72.0123 66.9452 
74.6879 66.9452 77.463 74.6879 74.6879 69.4326 72.0123 69.4326 66.9452 
72.0123 66.9452 69.4326 66.9452 69.4326 64.547 72.0123 69.4326 74.6879 
72.0123 72.0123 69.4326 69.4326 69.4326 64.547 66.9452 62.2346 80.3411 
77.463 72.0123 69.4326 64.547 62.2346 66.9452 64.547 
