# vtk DataFile Version 4.1
vtk output
ASCII
DATASET POLYDATA
POINTS 128 float
100 9850 50 3250 9850 50 2627.54 10125.7 50 
3750 10950 50 3628.94 10699.4 50 4806.31 10624.4 50 
5260.22 10179.9 50 5871.58 9904.45 50 6950 10750 50 
5808.76 11298.9 50 6950 11850 50 7450 8350 50 
6150 12550 50 6752.8 11897.7 50 7350 7150 50 
6890.84 11864.3 50 7950 11550 50 7445.26 8408.9 50 
8250 7750 50 8450 12350 50 7355.94 7292.97 50 
6218.04 12429.9 50 7750 13750 50 7997.78 12433.8 50 
8216.48 7792.85 50 9050 7150 50 8428.93 12334.2 50 
9150 12150 50 8077.25 8044.47 50 9150 8050 50 
8550 5850 50 8744.59 7183.14 50 9150 6350 50 
7290.44 13621.3 50 7550 14650 50 7701.15 13774.9 50 
8550 14250 50 9550 13050 50 8974.72 7936.23 50 
9016.67 7122.25 50 9750 6850 50 7642.18 14322.5 50 
8250 14950 50 9087.26 12125 50 9750 11850 50 
8559.17 6032 50 9377.39 12935.5 50 10250 12550 50 
10350 7450 50 8552.75 5904.6 50 8250 5150 50 
9546.16 13038.5 50 10250 13450 50 9464.86 7848.54 50 
10150 8150 50 9183.84 6599.26 50 9850 6050 50 
9711.34 6853.12 50 10450 6550 50 8034.87 14923 50 
8350 15750 50 9999.14 12847.1 50 10850 12950 50 
9350 4750 50 8221.07 14962.1 50 8950 15150 50 
10270.8 7423.08 50 9639.53 6073.7 50 9697.06 11938.2 50 
10650 11950 50 8507.32 5372.21 50 8650 4650 50 
10063 8040.61 50 10850 7950 50 10485.1 12058.2 50 
11150 12350 50 10241.6 13381.7 50 10850 13650 50 
9365.87 4988.72 50 9950 4550 50 10675.2 7874.24 50 
11350 7550 50 10773.7 12861.1 50 11550 12750 50 
10762.3 7031.23 50 11250 6450 50 10769.7 13549.6 50 
11450 13450 50 11650 6950 50 9372.09 4773.75 50 
9450 4050 50 10550 5150 50 9884.35 4725.49 50 
10550 4550 50 9944.52 4555.5 50 10150 3950 50 
11302.1 7653.76 50 11950 7550 50 10920.1 12168.5 50 
11550 11950 50 11379.5 12906.4 50 12050 13150 50 
11387.6 12138.9 50 12050 12250 50 11222.9 6654.49 50 
11850 6350 50 11636.5 6972.65 50 12250 6950 50 
9530.84 4199.5 50 9850 3550 50 10345 4527.42 50 
10750 3950 50 11317.9 13573.8 50 11950 13750 50 
11885.3 13008.7 50 12550 12750 50 11837.2 13623.5 50 
12450 13550 50 11910.7 7555.2 50 12550 7450 50 
7916.56 14851.8 50 7950 14950 50 9948.36 4551.65 50 
9950 4450 50 12205.2 6954.76 50 12450 6950 50 
12262.1 12971.7 50 12450 13050 50 
LINES 127 381
2 2 1 
2 0 2 
2 4 3 
2 2 4 
2 4 5 
2 5 6 
2 6 7 
2 7 8 
2 5 9 
2 15 10 
2 17 11 
2 21 12 
2 9 13 
2 20 14 
2 13 15 
2 15 16 
2 7 17 
2 24 18 
2 26 19 
2 6 20 
2 9 21 
2 35 22 
2 13 23 
2 28 24 
2 39 25 
2 23 26 
2 43 27 
2 17 28 
2 38 29 
2 49 30 
2 24 31 
2 55 32 
2 21 33 
2 41 34 
2 33 35 
2 35 36 
2 51 37 
2 28 38 
2 31 39 
2 57 40 
2 33 41 
2 64 42 
2 26 43 
2 68 44 
2 20 45 
2 23 46 
2 61 47 
2 66 48 
2 45 49 
2 70 50 
2 46 51 
2 76 52 
2 38 53 
2 72 54 
2 31 55 
2 67 56 
2 39 57 
2 57 58 
2 120 59 
2 59 60 
2 46 61 
2 82 62 
2 89 63 
2 59 64 
2 64 65 
2 53 66 
2 55 67 
2 43 68 
2 74 69 
2 49 70 
2 70 71 
2 53 72 
2 80 73 
2 68 74 
2 98 75 
2 51 76 
2 86 77 
2 45 78 
2 122 79 
2 72 80 
2 96 81 
2 61 82 
2 100 83 
2 66 84 
2 104 85 
2 76 86 
2 112 87 
2 106 88 
2 78 89 
2 108 90 
2 67 91 
2 78 92 
2 110 93 
2 92 94 
2 94 95 
2 80 96 
2 118 97 
2 74 98 
2 102 99 
2 82 100 
2 114 101 
2 98 102 
2 102 103 
2 84 104 
2 104 105 
2 84 106 
2 124 107 
2 89 108 
2 108 109 
2 92 110 
2 110 111 
2 86 112 
2 116 113 
2 100 114 
2 126 115 
2 112 116 
2 116 117 
2 96 118 
2 118 119 
2 41 120 
2 120 121 
2 94 122 
2 122 123 
2 106 124 
2 124 125 
2 114 126 
2 126 127 

CELL_DATA 127
SCALARS radius float
LOOKUP_TABLE default
96.4176 100 92.9635 96.4176 92.9635 89.6332 86.4222 83.3262 89.6332 
80.3411 80.3411 83.3262 86.4222 83.3262 83.3262 80.3411 83.3262 74.6879 
77.463 86.4222 86.4222 77.463 83.3262 77.463 69.4326 80.3411 74.6879 
80.3411 74.6879 77.463 74.6879 69.4326 83.3262 77.463 80.3411 77.463 
74.6879 77.463 72.0123 66.9452 80.3411 69.4326 77.463 72.0123 83.3262 
80.3411 74.6879 69.4326 80.3411 74.6879 77.463 72.0123 74.6879 69.4326 
72.0123 66.9452 69.4326 66.9452 74.6879 72.0123 77.463 72.0123 74.6879 
72.0123 69.4326 72.0123 69.4326 74.6879 69.4326 77.463 74.6879 72.0123 
66.9452 72.0123 66.9452 74.6879 69.4326 80.3411 69.4326 69.4326 64.547 
74.6879 69.4326 69.4326 64.547 72.0123 66.9452 64.547 77.463 72.0123 
66.9452 77.463 72.0123 74.6879 72.0123 66.9452 62.2346 69.4326 64.547 
72.0123 66.9452 66.9452 64.547 66.9452 64.547 66.9452 62.2346 74.6879 
72.0123 74.6879 72.0123 69.4326 64.547 69.4326 64.547 66.9452 64.547 
64.547 62.2346 77.463 74.6879 72.0123 69.4326 64.547 62.2346 66.9452 
64.547 
