# vtk DataFile Version 4.1
vtk output
ASCII
DATASET POLYDATA
POINTS 116 float
100 9850 50 2850 10550 50 2658.8 10238.8 50 
3431.49 10076.3 50 5637.85 9005.82 50 5850 12050 50 
5923.28 11439.4 50 5850 7750 50 6337.75 8555.54 50 
7750 8350 50 6591.51 11788.5 50 7850 11750 50 
7479.53 11889.5 50 8350 12650 50 7625.82 8246.85 50 
7750 13750 50 8550 6750 50 8127.45 12630.6 50 
8550 13450 50 7801.06 11821.1 50 8283.23 12644.2 50 
9350 12650 50 8036.42 6872.61 50 8350 5850 50 
7410.06 13326.4 50 7050 14250 50 7331.63 13835 50 
7750 14650 50 8454.25 6708.91 50 9150 6150 50 
7743.02 13685.7 50 8550 14350 50 9550 11950 50 
8571.18 13084.7 50 9850 6850 50 8767.61 7662.23 50 
9650 8150 50 9415.7 12039.2 50 10150 12450 50 
8417.65 6037.23 50 8950 5350 50 7452.63 14290.3 50 
7150 15050 50 9394.45 7803.87 50 7673.92 14636.1 50 
7950 15450 50 9123.02 6144.14 50 9650 5650 50 
9699.53 7186.89 50 10550 7050 50 10055 12458.6 50 
10650 12950 50 9861.77 6871.71 50 10150 6350 50 
8370.3 5906.17 50 8250 5050 50 8837.03 5352.28 50 
9150 4750 50 9049.35 5133.34 50 9750 4950 50 
10121.5 12452.6 50 10850 12150 50 10950 7650 50 
10650 13650 50 10532.4 12658.1 50 11250 12750 50 
10445.8 7009.81 50 11150 6750 50 9176.72 4858.84 50 
9650 4350 50 9635.21 5735.66 50 10350 5250 50 
9665.79 4924.67 50 10504.7 13477.6 50 11250 13450 50 
10829 7569.17 50 11550 7250 50 9158.02 4782.65 50 
8950 4250 50 10812.9 12246.8 50 11550 12150 50 
11216.4 12692.6 50 11950 12650 50 10913.7 7625.75 50 
11550 7950 50 11149 6756.35 50 11750 6550 50 
9638.55 4400.83 50 10150 3950 50 11239.1 13456.6 50 
11850 13450 50 10650 4250 50 11487.3 7324.14 50 
12150 7150 50 9791.99 4265.58 50 9650 3650 50 
10289.3 5265.41 50 10950 4750 50 11796.5 12779 50 
12450 13050 50 11463.5 7792.3 50 12150 7850 50 
11725.7 6588.03 50 12350 6450 50 11773.7 13508.7 50 
12450 13650 50 12041.1 7239.02 50 12650 7450 50 
12318.7 7255.52 50 12850 6950 50 7817.48 14919.3 50 
7950 14950 50 9961.05 4722.27 50 9950 4450 50 
12145.2 7160.28 50 12450 6950 50 
LINES 115 345
2 2 1 
2 0 2 
2 2 3 
2 3 4 
2 6 5 
2 3 6 
2 4 7 
2 4 8 
2 14 9 
2 6 10 
2 19 11 
2 10 12 
2 20 13 
2 8 14 
2 30 15 
2 28 16 
2 12 17 
2 33 18 
2 12 19 
2 17 20 
2 20 21 
2 8 22 
2 54 23 
2 10 24 
2 26 25 
2 24 26 
2 44 27 
2 22 28 
2 46 29 
2 24 30 
2 30 31 
2 37 32 
2 17 33 
2 52 34 
2 14 35 
2 43 36 
2 19 37 
2 60 38 
2 22 39 
2 56 40 
2 26 41 
2 41 42 
2 35 43 
2 41 44 
2 110 45 
2 28 46 
2 70 47 
2 35 48 
2 66 49 
2 37 50 
2 64 51 
2 48 52 
2 52 53 
2 39 54 
2 54 55 
2 39 56 
2 77 57 
2 56 58 
2 72 59 
2 50 60 
2 79 61 
2 83 62 
2 73 63 
2 50 64 
2 81 65 
2 48 66 
2 85 67 
2 58 68 
2 87 69 
2 46 70 
2 96 71 
2 58 72 
2 33 73 
2 89 74 
2 43 75 
2 92 76 
2 68 77 
2 77 78 
2 60 79 
2 79 80 
2 64 81 
2 98 82 
2 75 83 
2 100 84 
2 66 85 
2 102 86 
2 68 87 
2 94 88 
2 73 89 
2 104 90 
2 112 91 
2 75 92 
2 114 93 
2 87 94 
2 94 95 
2 70 96 
2 96 97 
2 81 98 
2 98 99 
2 83 100 
2 100 101 
2 85 102 
2 102 103 
2 89 104 
2 104 105 
2 92 106 
2 108 107 
2 106 108 
2 108 109 
2 44 110 
2 110 111 
2 72 112 
2 112 113 
2 106 114 
2 114 115 

CELL_DATA 115
SCALARS radius float
LOOKUP_TABLE default
96.4176 100 96.4176 92.9635 89.6332 92.9635 89.6332 89.6332 83.3262 
89.6332 80.3411 86.4222 77.463 86.4222 80.3411 80.3411 83.3262 77.463 
83.3262 80.3411 77.463 86.4222 77.463 86.4222 80.3411 83.3262 74.6879 
83.3262 77.463 83.3262 80.3411 77.463 80.3411 74.6879 83.3262 77.463 
80.3411 72.0123 83.3262 77.463 80.3411 77.463 80.3411 77.463 72.0123 
80.3411 74.6879 80.3411 74.6879 77.463 72.0123 77.463 74.6879 80.3411 
77.463 80.3411 69.4326 77.463 72.0123 74.6879 69.4326 72.0123 74.6879 
74.6879 69.4326 77.463 72.0123 74.6879 69.4326 77.463 72.0123 74.6879 
77.463 72.0123 77.463 72.0123 72.0123 69.4326 72.0123 69.4326 72.0123 
66.9452 74.6879 69.4326 74.6879 69.4326 72.0123 66.9452 74.6879 69.4326 
69.4326 74.6879 66.9452 69.4326 66.9452 74.6879 72.0123 69.4326 66.9452 
72.0123 69.4326 72.0123 69.4326 72.0123 69.4326 72.0123 66.9452 69.4326 
66.9452 74.6879 72.0123 72.0123 69.4326 69.4326 66.9452 
