# vtk DataFile Version 4.1
vtk output
ASCII
DATASET POLYDATA
POINTS 106 float
100 9850 50 150 10650 50 100 9850 50 
2050 10150 50 1840 9954 50 2868.5 9961.4 50 
5412.2 8840.86 50 5886.17 11395.7 50 7550 11850 50 
6561.57 12212.6 50 7195.56 12512.1 50 8450 7550 50 
8150 6650 50 7750 13750 50 7435.26 11719.9 50 
9050 12850 50 8425.19 7606.68 50 9150 7150 50 
7476.89 6795.08 50 7916.56 6614.38 50 8550 5950 50 
7704.84 13388.3 50 8650 13750 50 8056.1 8026.28 50 
9050 8250 50 7213.12 14014.5 50 7950 14650 50 
9550 12150 50 9017.18 12804.8 50 9750 12850 50 
8899.95 8094.41 50 9650 7950 50 9128.85 7183.96 50 
9950 7250 50 8696.48 12944.9 50 8543.3 6022.6 50 
9250 5450 50 7350 15150 50 9515.59 12116.2 50 
7882.2 14614.7 50 8550 15250 50 10250 13450 50 
9573.21 7118.32 50 10250 6550 50 10100 12301.2 50 
10650 12950 50 9601.98 7951.76 50 10550 7750 50 
10226.8 7662.71 50 10750 7150 50 8950 4750 50 
9163.32 5707.04 50 9950 5550 50 10173.4 6759.86 50 
10750 6650 50 8903.92 5001.78 50 9650 4750 50 
10950 12150 50 10642 12770.4 50 11250 13050 50 
10509 7698.46 50 11250 7650 50 9656.39 5457.38 50 
10250 4950 50 10706.7 7274.43 50 11450 7050 50 
8968.5 4794.41 50 9250 4150 50 10871.1 12220.1 50 
11550 12450 50 10687.4 6637.95 50 11350 6450 50 
9463.57 4710.71 50 10050 4250 50 11090.8 13078.1 50 
11550 13550 50 11202.2 13058.4 50 11950 13050 50 
10172 4972.36 50 10650 4450 50 11180.9 7693.51 50 
11850 7750 50 11352.2 7009.82 50 11950 6650 50 
11627.2 6844.3 50 12150 7150 50 11500.7 12376.4 50 
12150 12450 50 9271.92 4216.21 50 9650 3650 50 
9974.34 4257.43 50 10450 3750 50 11943.1 13052.4 50 
12450 13050 50 11778.4 7671.4 50 12550 7550 50 
11921 6718.01 50 12550 6650 50 12082.2 12398.5 50 
12650 12350 50 7929.66 14639.4 50 7950 14950 50 
9880.69 4460.22 50 9950 4450 50 12220.1 6766.64 50 
12450 6950 50 
LINES 105 315
2 2 1 
2 0 2 
2 4 3 
2 2 4 
2 4 5 
2 5 6 
2 5 7 
2 14 8 
2 7 9 
2 9 10 
2 16 11 
2 19 12 
2 21 13 
2 7 14 
2 28 15 
2 23 16 
2 32 17 
2 6 18 
2 18 19 
2 35 20 
2 10 21 
2 21 22 
2 6 23 
2 30 24 
2 9 25 
2 100 26 
2 38 27 
2 34 28 
2 28 29 
2 23 30 
2 46 31 
2 16 32 
2 42 33 
2 10 34 
2 19 35 
2 51 36 
2 25 37 
2 14 38 
2 25 39 
2 39 40 
2 34 41 
2 32 42 
2 53 43 
2 38 44 
2 58 45 
2 30 46 
2 60 47 
2 46 48 
2 64 49 
2 66 50 
2 35 51 
2 62 52 
2 42 53 
2 70 54 
2 18 55 
2 72 56 
2 68 57 
2 44 58 
2 76 59 
2 48 60 
2 80 61 
2 51 62 
2 78 63 
2 48 64 
2 82 65 
2 55 66 
2 88 67 
2 44 68 
2 86 69 
2 53 70 
2 70 71 
2 55 72 
2 90 73 
2 58 74 
2 74 75 
2 74 76 
2 92 77 
2 62 78 
2 78 79 
2 60 80 
2 94 81 
2 64 82 
2 96 83 
2 82 84 
2 84 85 
2 68 86 
2 98 87 
2 66 88 
2 88 89 
2 102 90 
2 90 91 
2 76 92 
2 92 93 
2 80 94 
2 94 95 
2 84 96 
2 104 97 
2 86 98 
2 98 99 
2 39 100 
2 100 101 
2 72 102 
2 102 103 
2 96 104 
2 104 105 

CELL_DATA 105
SCALARS radius float
LOOKUP_TABLE default
96.4176 100 92.9635 96.4176 92.9635 89.6332 89.6332 83.3262 86.4222 
83.3262 80.3411 80.3411 77.463 86.4222 74.6879 83.3262 77.463 86.4222 
83.3262 77.463 80.3411 77.463 86.4222 80.3411 83.3262 74.6879 80.3411 
77.463 74.6879 83.3262 77.463 80.3411 74.6879 80.3411 80.3411 74.6879 
80.3411 83.3262 80.3411 77.463 77.463 77.463 72.0123 80.3411 74.6879 
80.3411 72.0123 77.463 72.0123 77.463 77.463 72.0123 74.6879 69.4326 
83.3262 77.463 74.6879 77.463 69.4326 74.6879 69.4326 74.6879 69.4326 
74.6879 69.4326 80.3411 74.6879 77.463 72.0123 72.0123 69.4326 80.3411 
72.0123 74.6879 72.0123 72.0123 66.9452 72.0123 69.4326 72.0123 66.9452 
72.0123 64.547 69.4326 66.9452 74.6879 69.4326 77.463 74.6879 74.6879 
72.0123 69.4326 66.9452 69.4326 66.9452 66.9452 62.2346 72.0123 69.4326 
77.463 74.6879 77.463 74.6879 64.547 62.2346 
