# vtk DataFile Version 4.1
vtk output
ASCII
DATASET POLYDATA
POINTS 116 float
100 9850 50 3250 9750 50 2614.9 10030.5 50 
3209.72 9764.17 50 5350 8350 50 5192.27 8738.28 50 
5755.12 11635.7 50 7050 12250 50 5733.94 8480.08 50 
7950 11850 50 6554.66 12197.4 50 6950 13150 50 
7150 6650 50 8450 7550 50 6987.86 12909 50 
7088.23 7017.21 50 8150 6550 50 7901.85 11839.3 50 
8750 12050 50 7634.12 13468.9 50 7990.63 7897.09 50 
8373.22 7559.48 50 9050 6750 50 7179.44 6709.9 50 
7550 5950 50 8634.74 12077.7 50 9550 12450 50 
9550 7550 50 7978.23 6503.51 50 7950 14750 50 
9267.9 12497.1 50 9850 13150 50 8650 14550 50 
9003.29 7073.79 50 9850 6750 50 7580.89 6021.16 50 
7950 5450 50 9550 5950 50 9496.33 7623.28 50 
10250 7450 50 9490.13 12418 50 10150 12050 50 
7948.34 5548.21 50 7721.41 14506.3 50 7450 15350 50 
9637.13 12761 50 10450 12750 50 9084.8 5948.6 50 
9450 5250 50 7925.99 14748.7 50 8350 15350 50 
9845.49 13055.9 50 10350 13450 50 9135.6 7860.98 50 
9950 8250 50 10116.5 7412.79 50 10750 6850 50 
10054.1 12225.2 50 10750 12150 50 9150 4650 50 
10264.9 12866.4 50 10950 13150 50 9783.09 7979.27 50 
10750 7950 50 9361.75 5620.28 50 10475.2 7821.71 50 
11150 7450 50 9475.11 5295.6 50 9850 4650 50 
9747.05 6713.61 50 10450 6250 50 10656.6 12935.4 50 
11350 12650 50 10664.6 7075.11 50 11350 6850 50 
10336.8 6463.45 50 11050 6350 50 10316.2 13376.3 50 
10950 13750 50 9078.64 4645.03 50 9650 4050 50 
10931.3 13102.9 50 11550 13350 50 9832.78 4810.31 50 
10450 4550 50 11051.8 7578.36 50 11750 7650 50 
10695.3 12118.1 50 11350 11950 50 11240.6 12820.1 50 
11950 12850 50 11243.2 12037.4 50 11850 12250 50 
10989.8 6386.3 50 11650 6350 50 11435.9 7529.46 50 
12050 7050 50 9635.17 4212.41 50 10250 3950 50 
10850 4950 50 11520 13298.9 50 12150 13450 50 
10441.9 4556.47 50 10950 4350 50 11698.9 7584.17 50 
12350 7550 50 11891 12812.4 50 12550 12750 50 
7860.38 14743.6 50 7950 14950 50 9859.35 4665.28 50 
9950 4450 50 12039.9 7147.04 50 12450 6950 50 
12205.7 12864 50 12450 13050 50 
LINES 115 345
2 3 1 
2 0 2 
2 2 3 
2 5 4 
2 3 5 
2 2 6 
2 10 7 
2 5 8 
2 17 9 
2 6 10 
2 14 11 
2 23 12 
2 21 13 
2 10 14 
2 8 15 
2 28 16 
2 6 17 
2 25 18 
2 14 19 
2 8 20 
2 20 21 
2 33 22 
2 15 23 
2 35 24 
2 17 25 
2 40 26 
2 38 27 
2 15 28 
2 49 29 
2 25 30 
2 51 31 
2 19 32 
2 21 33 
2 69 34 
2 23 35 
2 42 36 
2 47 37 
2 53 38 
2 55 39 
2 30 40 
2 57 41 
2 35 42 
2 19 43 
2 43 44 
2 30 45 
2 60 46 
2 28 47 
2 67 48 
2 108 49 
2 49 50 
2 45 51 
2 77 52 
2 20 53 
2 62 54 
2 38 55 
2 73 56 
2 40 57 
2 87 58 
2 79 59 
2 45 60 
2 81 61 
2 53 62 
2 65 63 
2 47 64 
2 62 65 
2 85 66 
2 64 67 
2 110 68 
2 33 69 
2 75 70 
2 60 71 
2 89 72 
2 55 73 
2 73 74 
2 69 75 
2 93 76 
2 51 77 
2 77 78 
2 42 79 
2 97 80 
2 71 81 
2 100 82 
2 67 83 
2 102 84 
2 65 85 
2 104 86 
2 57 87 
2 91 88 
2 71 89 
2 106 90 
2 87 91 
2 91 92 
2 75 93 
2 93 94 
2 85 95 
2 112 96 
2 79 97 
2 97 98 
2 64 99 
2 81 100 
2 100 101 
2 83 102 
2 102 103 
2 95 104 
2 104 105 
2 89 106 
2 114 107 
2 43 108 
2 108 109 
2 83 110 
2 110 111 
2 95 112 
2 112 113 
2 106 114 
2 114 115 

CELL_DATA 115
SCALARS radius float
LOOKUP_TABLE default
92.9635 100 96.4176 89.6332 92.9635 96.4176 89.6332 89.6332 89.6332 
92.9635 86.4222 80.3411 80.3411 89.6332 86.4222 80.3411 92.9635 86.4222 
86.4222 86.4222 83.3262 77.463 83.3262 77.463 89.6332 80.3411 77.463 
83.3262 74.6879 86.4222 77.463 83.3262 80.3411 74.6879 80.3411 74.6879 
77.463 80.3411 74.6879 83.3262 77.463 77.463 83.3262 80.3411 83.3262 
77.463 80.3411 72.0123 77.463 74.6879 80.3411 74.6879 83.3262 77.463 
77.463 72.0123 80.3411 74.6879 72.0123 80.3411 72.0123 80.3411 74.6879 
77.463 77.463 72.0123 74.6879 66.9452 77.463 72.0123 77.463 72.0123 
74.6879 72.0123 74.6879 69.4326 77.463 74.6879 74.6879 69.4326 74.6879 
69.4326 72.0123 66.9452 74.6879 66.9452 77.463 72.0123 74.6879 69.4326 
74.6879 72.0123 72.0123 69.4326 72.0123 66.9452 72.0123 69.4326 74.6879 
72.0123 69.4326 69.4326 66.9452 69.4326 66.9452 72.0123 66.9452 80.3411 
77.463 69.4326 66.9452 69.4326 66.9452 69.4326 66.9452 
